<?xml version="1.0" encoding="UTF-8"?>

<!-- generated on 2025-06-18 10:37:55 by Eclipse SUMO GUI Version 1.23.1
<sumoConfiguration xmlns:xsi="http://www.w3.org/2001/XMLSchema-instance" xsi:noNamespaceSchemaLocation="http://sumo.dlr.de/xsd/sumoConfiguration.xsd">

    <input>
        <net-file value="tl_intersection.net.xml"/>
        <route-files value="tl_intersection.rou.xml"/>
        <additional-files value="tl_intersection.tll.xml"/>
    </input>

    <output>
        <tripinfo-output value="tl_intersection_tripinfo.xml"/>
    </output>

    <time>
        <begin value="0"/>
        <end value="3600"/>
    </time>

    <report>
        <no-warnings value="false"/>
        <message-log value="tl_intersection_warnings.log"/>
    </report>

</sumoConfiguration>
-->

<tripinfos xmlns:xsi="http://www.w3.org/2001/XMLSchema-instance" xsi:noNamespaceSchemaLocation="http://sumo.dlr.de/xsd/tripinfo_file.xsd">
    <tripinfo id="veh0" depart="0.00" departLane="in_n3_1_0" departPos="5.10" departSpeed="14.73" departDelay="0.00" arrival="16.00" arrivalLane="out_1_n4_0" arrivalPos="92.80" arrivalSpeed="13.44" duration="16.00" routeLength="194.70" waitingTime="0.00" waitingCount="0" stopTime="0.00" timeLoss="1.99" rerouteNo="0" devices="tripinfo_veh0 routing_veh0" vType="DEFAULT_VEHTYPE" speedFactor="1.06" vaporized=""/>
    <tripinfo id="veh1" depart="6.00" departLane="in_n4_1_0" departPos="5.10" departSpeed="13.04" departDelay="0.00" arrival="31.00" arrivalLane="out_1_n5_0" arrivalPos="92.80" arrivalSpeed="12.91" duration="25.00" routeLength="194.90" waitingTime="4.00" waitingCount="1" stopTime="0.00" timeLoss="9.74" rerouteNo="0" devices="tripinfo_veh1 routing_veh1" vType="DEFAULT_VEHTYPE" speedFactor="0.94" vaporized=""/>
    <tripinfo id="veh2" depart="12.00" departLane="in_n4_1_0" departPos="5.10" departSpeed="14.04" departDelay="0.00" arrival="33.00" arrivalLane="out_1_n2_0" arrivalPos="92.80" arrivalSpeed="13.69" duration="21.00" routeLength="194.70" waitingTime="0.00" waitingCount="0" stopTime="0.00" timeLoss="5.81" rerouteNo="0" devices="tripinfo_veh2 routing_veh2" vType="DEFAULT_VEHTYPE" speedFactor="1.01" vaporized=""/>
    <tripinfo id="veh3" depart="18.00" departLane="in_n4_1_0" departPos="5.10" departSpeed="15.05" departDelay="0.00" arrival="35.00" arrivalLane="out_1_n2_0" arrivalPos="92.80" arrivalSpeed="14.19" duration="17.00" routeLength="194.70" waitingTime="0.00" waitingCount="0" stopTime="0.00" timeLoss="2.78" rerouteNo="0" devices="tripinfo_veh3 routing_veh3" vType="DEFAULT_VEHTYPE" speedFactor="1.08" vaporized=""/>
    <tripinfo id="veh4" depart="24.00" departLane="in_n5_1_0" departPos="5.10" departSpeed="14.32" departDelay="0.00" arrival="39.00" arrivalLane="out_1_n4_0" arrivalPos="92.80" arrivalSpeed="14.29" duration="15.00" routeLength="194.90" waitingTime="0.00" waitingCount="0" stopTime="0.00" timeLoss="0.68" rerouteNo="0" devices="tripinfo_veh4 routing_veh4" vType="DEFAULT_VEHTYPE" speedFactor="1.03" vaporized=""/>
    <tripinfo id="veh5" depart="30.00" departLane="in_n2_1_0" departPos="5.10" departSpeed="11.55" departDelay="0.00" arrival="51.00" arrivalLane="out_1_n3_0" arrivalPos="92.80" arrivalSpeed="11.16" duration="21.00" routeLength="194.90" waitingTime="0.00" waitingCount="0" stopTime="0.00" timeLoss="3.21" rerouteNo="0" devices="tripinfo_veh5 routing_veh5" vType="DEFAULT_VEHTYPE" speedFactor="0.83" vaporized=""/>
    <tripinfo id="veh6" depart="36.00" departLane="in_n2_1_0" departPos="5.10" departSpeed="14.54" departDelay="0.00" arrival="52.00" arrivalLane="out_1_n5_0" arrivalPos="92.80" arrivalSpeed="14.19" duration="16.00" routeLength="194.70" waitingTime="0.00" waitingCount="0" stopTime="0.00" timeLoss="1.59" rerouteNo="0" devices="tripinfo_veh6 routing_veh6" vType="DEFAULT_VEHTYPE" speedFactor="1.05" vaporized=""/>
    <tripinfo id="veh8" depart="48.00" departLane="in_n3_1_0" departPos="5.10" departSpeed="13.04" departDelay="0.00" arrival="66.00" arrivalLane="out_1_n5_0" arrivalPos="92.80" arrivalSpeed="12.69" duration="18.00" routeLength="189.53" waitingTime="0.00" waitingCount="0" stopTime="0.00" timeLoss="2.34" rerouteNo="0" devices="tripinfo_veh8 routing_veh8" vType="DEFAULT_VEHTYPE" speedFactor="0.94" vaporized=""/>
    <tripinfo id="veh7" depart="42.00" departLane="in_n5_1_0" departPos="5.10" departSpeed="12.32" departDelay="0.00" arrival="71.00" arrivalLane="out_1_n4_0" arrivalPos="92.80" arrivalSpeed="12.17" duration="29.00" routeLength="194.90" waitingTime="6.00" waitingCount="1" stopTime="0.00" timeLoss="12.42" rerouteNo="0" devices="tripinfo_veh7 routing_veh7" vType="DEFAULT_VEHTYPE" speedFactor="0.89" vaporized=""/>
    <tripinfo id="veh10" depart="60.00" departLane="in_n4_1_0" departPos="5.10" departSpeed="15.16" departDelay="0.00" arrival="76.00" arrivalLane="out_1_n3_0" arrivalPos="92.80" arrivalSpeed="14.53" duration="16.00" routeLength="189.53" waitingTime="0.00" waitingCount="0" stopTime="0.00" timeLoss="2.56" rerouteNo="0" devices="tripinfo_veh10 routing_veh10" vType="DEFAULT_VEHTYPE" speedFactor="1.09" vaporized=""/>
    <tripinfo id="veh12" depart="72.00" departLane="in_n5_1_0" departPos="5.10" departSpeed="14.55" departDelay="0.00" arrival="87.00" arrivalLane="out_1_n4_0" arrivalPos="92.80" arrivalSpeed="13.53" duration="15.00" routeLength="194.90" waitingTime="0.00" waitingCount="0" stopTime="0.00" timeLoss="0.72" rerouteNo="0" devices="tripinfo_veh12 routing_veh12" vType="DEFAULT_VEHTYPE" speedFactor="1.05" vaporized=""/>
    <tripinfo id="veh9" depart="54.00" departLane="in_n3_1_0" departPos="5.10" departSpeed="11.91" departDelay="0.00" arrival="91.00" arrivalLane="out_1_n5_0" arrivalPos="92.80" arrivalSpeed="11.34" duration="37.00" routeLength="189.53" waitingTime="15.00" waitingCount="1" stopTime="0.00" timeLoss="20.40" rerouteNo="0" devices="tripinfo_veh9 routing_veh9" vType="DEFAULT_VEHTYPE" speedFactor="0.86" vaporized=""/>
    <tripinfo id="veh11" depart="66.00" departLane="in_n3_1_0" departPos="5.10" departSpeed="14.27" departDelay="0.00" arrival="92.00" arrivalLane="out_1_n2_0" arrivalPos="92.80" arrivalSpeed="13.59" duration="26.00" routeLength="194.90" waitingTime="6.00" waitingCount="1" stopTime="0.00" timeLoss="11.80" rerouteNo="0" devices="tripinfo_veh11 routing_veh11" vType="DEFAULT_VEHTYPE" speedFactor="1.03" vaporized=""/>
    <tripinfo id="veh13" depart="78.00" departLane="in_n2_1_0" departPos="5.10" departSpeed="15.61" departDelay="0.00" arrival="94.00" arrivalLane="out_1_n4_0" arrivalPos="92.80" arrivalSpeed="14.81" duration="16.00" routeLength="189.53" waitingTime="0.00" waitingCount="0" stopTime="0.00" timeLoss="2.43" rerouteNo="0" devices="tripinfo_veh13 routing_veh13" vType="DEFAULT_VEHTYPE" speedFactor="1.12" vaporized=""/>
    <tripinfo id="veh14" depart="84.00" departLane="in_n3_1_0" departPos="5.10" departSpeed="13.78" departDelay="0.00" arrival="99.00" arrivalLane="out_1_n2_0" arrivalPos="92.80" arrivalSpeed="13.28" duration="15.00" routeLength="194.90" waitingTime="0.00" waitingCount="0" stopTime="0.00" timeLoss="0.78" rerouteNo="0" devices="tripinfo_veh14 routing_veh14" vType="DEFAULT_VEHTYPE" speedFactor="0.99" vaporized=""/>
    <tripinfo id="veh15" depart="90.00" departLane="in_n2_1_0" departPos="5.10" departSpeed="12.88" departDelay="0.00" arrival="108.00" arrivalLane="out_1_n4_0" arrivalPos="92.80" arrivalSpeed="12.71" duration="18.00" routeLength="189.53" waitingTime="0.00" waitingCount="0" stopTime="0.00" timeLoss="2.10" rerouteNo="0" devices="tripinfo_veh15 routing_veh15" vType="DEFAULT_VEHTYPE" speedFactor="0.93" vaporized=""/>
    <tripinfo id="veh16" depart="96.00" departLane="in_n4_1_0" departPos="5.10" departSpeed="12.21" departDelay="0.00" arrival="115.00" arrivalLane="out_1_n3_0" arrivalPos="92.80" arrivalSpeed="11.19" duration="19.00" routeLength="189.53" waitingTime="0.00" waitingCount="0" stopTime="0.00" timeLoss="2.94" rerouteNo="0" devices="tripinfo_veh16 routing_veh16" vType="DEFAULT_VEHTYPE" speedFactor="0.88" vaporized=""/>
    <tripinfo id="veh17" depart="102.00" departLane="in_n2_1_0" departPos="5.10" departSpeed="13.09" departDelay="0.00" arrival="131.00" arrivalLane="out_1_n3_0" arrivalPos="92.80" arrivalSpeed="12.32" duration="29.00" routeLength="194.90" waitingTime="7.00" waitingCount="1" stopTime="0.00" timeLoss="13.70" rerouteNo="0" devices="tripinfo_veh17 routing_veh17" vType="DEFAULT_VEHTYPE" speedFactor="0.94" vaporized=""/>
    <tripinfo id="veh18" depart="108.00" departLane="in_n2_1_0" departPos="5.10" departSpeed="13.01" departDelay="0.00" arrival="133.00" arrivalLane="out_1_n3_0" arrivalPos="92.80" arrivalSpeed="12.74" duration="25.00" routeLength="194.90" waitingTime="2.00" waitingCount="1" stopTime="0.00" timeLoss="9.55" rerouteNo="0" devices="tripinfo_veh18 routing_veh18" vType="DEFAULT_VEHTYPE" speedFactor="0.94" vaporized=""/>
    <tripinfo id="veh19" depart="114.00" departLane="in_n2_1_0" departPos="5.10" departSpeed="16.10" departDelay="0.00" arrival="134.00" arrivalLane="out_1_n4_0" arrivalPos="92.80" arrivalSpeed="14.91" duration="20.00" routeLength="189.53" waitingTime="0.00" waitingCount="0" stopTime="0.00" timeLoss="7.66" rerouteNo="0" devices="tripinfo_veh19 routing_veh19" vType="DEFAULT_VEHTYPE" speedFactor="1.16" vaporized=""/>
    <tripinfo id="veh21" depart="126.00" departLane="in_n4_1_0" departPos="5.10" departSpeed="14.04" departDelay="0.00" arrival="150.00" arrivalLane="out_1_n5_0" arrivalPos="92.80" arrivalSpeed="13.02" duration="24.00" routeLength="194.90" waitingTime="5.00" waitingCount="1" stopTime="0.00" timeLoss="9.96" rerouteNo="0" devices="tripinfo_veh21 routing_veh21" vType="DEFAULT_VEHTYPE" speedFactor="1.01" vaporized=""/>
    <tripinfo id="veh22" depart="132.00" departLane="in_n4_1_0" departPos="5.10" departSpeed="13.55" departDelay="0.00" arrival="153.00" arrivalLane="out_1_n2_0" arrivalPos="92.80" arrivalSpeed="13.41" duration="21.00" routeLength="194.70" waitingTime="0.00" waitingCount="0" stopTime="0.00" timeLoss="5.35" rerouteNo="0" devices="tripinfo_veh22 routing_veh22" vType="DEFAULT_VEHTYPE" speedFactor="0.97" vaporized=""/>
    <tripinfo id="veh20" depart="120.00" departLane="in_n5_1_0" departPos="5.10" departSpeed="14.15" departDelay="0.00" arrival="154.00" arrivalLane="out_1_n3_0" arrivalPos="92.80" arrivalSpeed="13.93" duration="34.00" routeLength="194.70" waitingTime="10.00" waitingCount="1" stopTime="0.00" timeLoss="18.75" rerouteNo="0" devices="tripinfo_veh20 routing_veh20" vType="DEFAULT_VEHTYPE" speedFactor="1.02" vaporized=""/>
    <tripinfo id="veh23" depart="138.00" departLane="in_n3_1_0" departPos="5.10" departSpeed="12.37" departDelay="0.00" arrival="171.00" arrivalLane="out_1_n5_0" arrivalPos="92.80" arrivalSpeed="11.76" duration="33.00" routeLength="189.53" waitingTime="10.00" waitingCount="1" stopTime="0.00" timeLoss="16.24" rerouteNo="0" devices="tripinfo_veh23 routing_veh23" vType="DEFAULT_VEHTYPE" speedFactor="0.89" vaporized=""/>
    <tripinfo id="veh24" depart="144.00" departLane="in_n2_1_0" departPos="5.10" departSpeed="11.48" departDelay="0.00" arrival="174.00" arrivalLane="out_1_n5_0" arrivalPos="92.80" arrivalSpeed="10.98" duration="30.00" routeLength="194.70" waitingTime="5.00" waitingCount="1" stopTime="0.00" timeLoss="11.95" rerouteNo="0" devices="tripinfo_veh24 routing_veh24" vType="DEFAULT_VEHTYPE" speedFactor="0.83" vaporized=""/>
    <tripinfo id="veh25" depart="150.00" departLane="in_n3_1_0" departPos="5.10" departSpeed="12.13" departDelay="0.00" arrival="174.00" arrivalLane="out_1_n4_0" arrivalPos="92.80" arrivalSpeed="11.60" duration="24.00" routeLength="194.70" waitingTime="0.00" waitingCount="0" stopTime="0.00" timeLoss="6.44" rerouteNo="0" devices="tripinfo_veh25 routing_veh25" vType="DEFAULT_VEHTYPE" speedFactor="0.87" vaporized=""/>
    <tripinfo id="veh26" depart="156.00" departLane="in_n2_1_0" departPos="5.10" departSpeed="12.75" departDelay="0.00" arrival="176.00" arrivalLane="out_1_n5_0" arrivalPos="92.80" arrivalSpeed="11.87" duration="20.00" routeLength="194.70" waitingTime="0.00" waitingCount="0" stopTime="0.00" timeLoss="3.52" rerouteNo="0" devices="tripinfo_veh26 routing_veh26" vType="DEFAULT_VEHTYPE" speedFactor="0.92" vaporized=""/>
    <tripinfo id="veh27" depart="162.00" departLane="in_n2_1_0" departPos="5.10" departSpeed="13.19" departDelay="0.00" arrival="180.00" arrivalLane="out_1_n4_0" arrivalPos="92.80" arrivalSpeed="12.70" duration="18.00" routeLength="189.53" waitingTime="0.00" waitingCount="0" stopTime="0.00" timeLoss="2.28" rerouteNo="0" devices="tripinfo_veh27 routing_veh27" vType="DEFAULT_VEHTYPE" speedFactor="0.95" vaporized=""/>
    <tripinfo id="veh28" depart="168.00" departLane="in_n3_1_0" departPos="5.10" departSpeed="15.73" departDelay="0.00" arrival="183.00" arrivalLane="out_1_n4_0" arrivalPos="92.80" arrivalSpeed="15.52" duration="15.00" routeLength="194.70" waitingTime="0.00" waitingCount="0" stopTime="0.00" timeLoss="1.76" rerouteNo="0" devices="tripinfo_veh28 routing_veh28" vType="DEFAULT_VEHTYPE" speedFactor="1.13" vaporized=""/>
    <tripinfo id="veh32" depart="192.00" departLane="in_n3_1_0" departPos="5.10" departSpeed="13.97" departDelay="0.00" arrival="208.00" arrivalLane="out_1_n2_0" arrivalPos="92.80" arrivalSpeed="13.85" duration="16.00" routeLength="194.90" waitingTime="0.00" waitingCount="0" stopTime="0.00" timeLoss="1.78" rerouteNo="0" devices="tripinfo_veh32 routing_veh32" vType="DEFAULT_VEHTYPE" speedFactor="1.01" vaporized=""/>
    <tripinfo id="veh29" depart="174.00" departLane="in_n2_1_0" departPos="5.10" departSpeed="12.95" departDelay="0.00" arrival="211.00" arrivalLane="out_1_n4_0" arrivalPos="92.80" arrivalSpeed="12.87" duration="37.00" routeLength="189.53" waitingTime="15.00" waitingCount="1" stopTime="0.00" timeLoss="21.06" rerouteNo="0" devices="tripinfo_veh29 routing_veh29" vType="DEFAULT_VEHTYPE" speedFactor="0.93" vaporized=""/>
    <tripinfo id="veh30" depart="180.00" departLane="in_n2_1_0" departPos="5.10" departSpeed="16.38" departDelay="0.00" arrival="212.00" arrivalLane="out_1_n4_0" arrivalPos="92.80" arrivalSpeed="15.94" duration="32.00" routeLength="189.53" waitingTime="12.00" waitingCount="1" stopTime="0.00" timeLoss="19.60" rerouteNo="0" devices="tripinfo_veh30 routing_veh30" vType="DEFAULT_VEHTYPE" speedFactor="1.18" vaporized=""/>
    <tripinfo id="veh31" depart="186.00" departLane="in_n2_1_0" departPos="5.10" departSpeed="16.05" departDelay="0.00" arrival="214.00" arrivalLane="out_1_n3_0" arrivalPos="92.80" arrivalSpeed="15.11" duration="28.00" routeLength="194.90" waitingTime="8.00" waitingCount="1" stopTime="0.00" timeLoss="15.30" rerouteNo="0" devices="tripinfo_veh31 routing_veh31" vType="DEFAULT_VEHTYPE" speedFactor="1.15" vaporized=""/>
    <tripinfo id="veh33" depart="198.00" departLane="in_n2_1_0" departPos="5.10" departSpeed="16.29" departDelay="0.00" arrival="217.00" arrivalLane="out_1_n5_0" arrivalPos="92.80" arrivalSpeed="15.13" duration="19.00" routeLength="194.70" waitingTime="0.00" waitingCount="0" stopTime="0.00" timeLoss="5.70" rerouteNo="0" devices="tripinfo_veh33 routing_veh33" vType="DEFAULT_VEHTYPE" speedFactor="1.17" vaporized=""/>
    <tripinfo id="veh34" depart="204.00" departLane="in_n2_1_0" departPos="5.10" departSpeed="13.83" departDelay="0.00" arrival="219.00" arrivalLane="out_1_n3_0" arrivalPos="92.80" arrivalSpeed="13.05" duration="15.00" routeLength="194.90" waitingTime="0.00" waitingCount="0" stopTime="0.00" timeLoss="0.73" rerouteNo="0" devices="tripinfo_veh34 routing_veh34" vType="DEFAULT_VEHTYPE" speedFactor="0.99" vaporized=""/>
    <tripinfo id="veh35" depart="210.00" departLane="in_n3_1_0" departPos="5.10" departSpeed="14.17" departDelay="0.00" arrival="227.00" arrivalLane="out_1_n4_0" arrivalPos="92.80" arrivalSpeed="14.09" duration="17.00" routeLength="194.70" waitingTime="0.00" waitingCount="0" stopTime="0.00" timeLoss="1.90" rerouteNo="0" devices="tripinfo_veh35 routing_veh35" vType="DEFAULT_VEHTYPE" speedFactor="1.02" vaporized=""/>
    <tripinfo id="veh37" depart="222.00" departLane="in_n3_1_0" departPos="5.10" departSpeed="16.40" departDelay="0.00" arrival="249.00" arrivalLane="out_1_n5_0" arrivalPos="92.80" arrivalSpeed="15.24" duration="27.00" routeLength="189.53" waitingTime="8.00" waitingCount="1" stopTime="0.00" timeLoss="14.97" rerouteNo="0" devices="tripinfo_veh37 routing_veh37" vType="DEFAULT_VEHTYPE" speedFactor="1.18" vaporized=""/>
    <tripinfo id="veh36" depart="216.00" departLane="in_n2_1_0" departPos="5.10" departSpeed="13.53" departDelay="0.00" arrival="251.00" arrivalLane="out_1_n3_0" arrivalPos="92.80" arrivalSpeed="13.42" duration="35.00" routeLength="194.90" waitingTime="15.00" waitingCount="1" stopTime="0.00" timeLoss="19.62" rerouteNo="0" devices="tripinfo_veh36 routing_veh36" vType="DEFAULT_VEHTYPE" speedFactor="0.97" vaporized=""/>
    <tripinfo id="veh38" depart="228.00" departLane="in_n2_1_0" departPos="5.10" departSpeed="15.32" departDelay="0.00" arrival="252.00" arrivalLane="out_1_n3_0" arrivalPos="92.80" arrivalSpeed="14.85" duration="24.00" routeLength="194.90" waitingTime="3.00" waitingCount="1" stopTime="0.00" timeLoss="10.97" rerouteNo="0" devices="tripinfo_veh38 routing_veh38" vType="DEFAULT_VEHTYPE" speedFactor="1.10" vaporized=""/>
    <tripinfo id="veh39" depart="234.00" departLane="in_n3_1_0" departPos="5.10" departSpeed="12.52" departDelay="0.00" arrival="254.00" arrivalLane="out_1_n5_0" arrivalPos="92.80" arrivalSpeed="11.26" duration="20.00" routeLength="189.53" waitingTime="0.00" waitingCount="0" stopTime="0.00" timeLoss="3.22" rerouteNo="0" devices="tripinfo_veh39 routing_veh39" vType="DEFAULT_VEHTYPE" speedFactor="0.90" vaporized=""/>
    <tripinfo id="veh42" depart="252.00" departLane="in_n2_1_0" departPos="5.10" departSpeed="15.18" departDelay="0.00" arrival="268.00" arrivalLane="out_1_n4_0" arrivalPos="92.80" arrivalSpeed="15.14" duration="16.00" routeLength="189.53" waitingTime="0.00" waitingCount="0" stopTime="0.00" timeLoss="2.07" rerouteNo="0" devices="tripinfo_veh42 routing_veh42" vType="DEFAULT_VEHTYPE" speedFactor="1.09" vaporized=""/>
    <tripinfo id="veh40" depart="240.00" departLane="in_n4_1_0" departPos="5.10" departSpeed="14.32" departDelay="0.00" arrival="270.00" arrivalLane="out_1_n3_0" arrivalPos="92.80" arrivalSpeed="14.29" duration="30.00" routeLength="189.53" waitingTime="10.00" waitingCount="1" stopTime="0.00" timeLoss="15.65" rerouteNo="0" devices="tripinfo_veh40 routing_veh40" vType="DEFAULT_VEHTYPE" speedFactor="1.03" vaporized=""/>
    <tripinfo id="veh43" depart="258.00" departLane="in_n5_1_0" departPos="5.10" departSpeed="14.43" departDelay="0.00" arrival="272.00" arrivalLane="out_1_n4_0" arrivalPos="92.80" arrivalSpeed="14.05" duration="14.00" routeLength="194.90" waitingTime="0.00" waitingCount="0" stopTime="0.00" timeLoss="0.32" rerouteNo="0" devices="tripinfo_veh43 routing_veh43" vType="DEFAULT_VEHTYPE" speedFactor="1.04" vaporized=""/>
    <tripinfo id="veh41" depart="246.00" departLane="in_n4_1_0" departPos="5.10" departSpeed="13.30" departDelay="0.00" arrival="273.00" arrivalLane="out_1_n3_0" arrivalPos="92.80" arrivalSpeed="13.00" duration="27.00" routeLength="189.53" waitingTime="5.00" waitingCount="1" stopTime="0.00" timeLoss="11.55" rerouteNo="0" devices="tripinfo_veh41 routing_veh41" vType="DEFAULT_VEHTYPE" speedFactor="0.96" vaporized=""/>
    <tripinfo id="veh45" depart="270.00" departLane="in_n5_1_0" departPos="5.10" departSpeed="15.12" departDelay="0.00" arrival="285.00" arrivalLane="out_1_n3_0" arrivalPos="92.80" arrivalSpeed="13.85" duration="15.00" routeLength="194.70" waitingTime="0.00" waitingCount="0" stopTime="0.00" timeLoss="1.59" rerouteNo="0" devices="tripinfo_veh45 routing_veh45" vType="DEFAULT_VEHTYPE" speedFactor="1.09" vaporized=""/>
    <tripinfo id="veh44" depart="264.00" departLane="in_n3_1_0" departPos="5.10" departSpeed="14.50" departDelay="0.00" arrival="291.00" arrivalLane="out_1_n4_0" arrivalPos="92.80" arrivalSpeed="14.32" duration="27.00" routeLength="194.70" waitingTime="6.00" waitingCount="1" stopTime="0.00" timeLoss="12.06" rerouteNo="0" devices="tripinfo_veh44 routing_veh44" vType="DEFAULT_VEHTYPE" speedFactor="1.04" vaporized=""/>
    <tripinfo id="veh47" depart="282.00" departLane="in_n2_1_0" departPos="5.10" departSpeed="12.52" departDelay="0.00" arrival="299.00" arrivalLane="out_1_n3_0" arrivalPos="92.80" arrivalSpeed="12.38" duration="17.00" routeLength="194.90" waitingTime="0.00" waitingCount="0" stopTime="0.00" timeLoss="0.85" rerouteNo="0" devices="tripinfo_veh47 routing_veh47" vType="DEFAULT_VEHTYPE" speedFactor="0.90" vaporized=""/>
    <tripinfo id="veh48" depart="288.00" departLane="in_n2_1_0" departPos="5.10" departSpeed="12.19" departDelay="0.00" arrival="305.00" arrivalLane="out_1_n3_0" arrivalPos="92.80" arrivalSpeed="11.46" duration="17.00" routeLength="194.90" waitingTime="0.00" waitingCount="0" stopTime="0.00" timeLoss="0.89" rerouteNo="0" devices="tripinfo_veh48 routing_veh48" vType="DEFAULT_VEHTYPE" speedFactor="0.88" vaporized=""/>
    <tripinfo id="veh46" depart="276.00" departLane="in_n4_1_0" departPos="5.10" departSpeed="13.86" departDelay="0.00" arrival="310.00" arrivalLane="out_1_n3_0" arrivalPos="92.80" arrivalSpeed="13.09" duration="34.00" routeLength="189.53" waitingTime="15.00" waitingCount="1" stopTime="0.00" timeLoss="19.39" rerouteNo="0" devices="tripinfo_veh46 routing_veh46" vType="DEFAULT_VEHTYPE" speedFactor="1.00" vaporized=""/>
    <tripinfo id="veh51" depart="306.00" departLane="in_n4_1_0" departPos="5.10" departSpeed="16.25" departDelay="0.00" arrival="321.00" arrivalLane="out_1_n2_0" arrivalPos="92.80" arrivalSpeed="15.84" duration="15.00" routeLength="194.70" waitingTime="0.00" waitingCount="0" stopTime="0.00" timeLoss="2.23" rerouteNo="0" devices="tripinfo_veh51 routing_veh51" vType="DEFAULT_VEHTYPE" speedFactor="1.17" vaporized=""/>
    <tripinfo id="veh49" depart="294.00" departLane="in_n2_1_0" departPos="5.10" departSpeed="11.82" departDelay="0.00" arrival="332.00" arrivalLane="out_1_n3_0" arrivalPos="92.80" arrivalSpeed="10.55" duration="38.00" routeLength="194.90" waitingTime="16.00" waitingCount="1" stopTime="0.00" timeLoss="20.63" rerouteNo="0" devices="tripinfo_veh49 routing_veh49" vType="DEFAULT_VEHTYPE" speedFactor="0.85" vaporized=""/>
    <tripinfo id="veh50" depart="300.00" departLane="in_n2_1_0" departPos="5.10" departSpeed="11.88" departDelay="0.00" arrival="334.00" arrivalLane="out_1_n5_0" arrivalPos="92.80" arrivalSpeed="11.29" duration="34.00" routeLength="194.70" waitingTime="10.00" waitingCount="1" stopTime="0.00" timeLoss="16.51" rerouteNo="0" devices="tripinfo_veh50 routing_veh50" vType="DEFAULT_VEHTYPE" speedFactor="0.85" vaporized=""/>
    <tripinfo id="veh53" depart="318.00" departLane="in_n3_1_0" departPos="5.10" departSpeed="15.23" departDelay="0.00" arrival="334.00" arrivalLane="out_1_n4_0" arrivalPos="92.80" arrivalSpeed="13.98" duration="16.00" routeLength="194.70" waitingTime="0.00" waitingCount="0" stopTime="0.00" timeLoss="1.77" rerouteNo="0" devices="tripinfo_veh53 routing_veh53" vType="DEFAULT_VEHTYPE" speedFactor="1.10" vaporized=""/>
    <tripinfo id="veh54" depart="324.00" departLane="in_n3_1_0" departPos="5.10" departSpeed="13.94" departDelay="0.00" arrival="339.00" arrivalLane="out_1_n2_0" arrivalPos="92.80" arrivalSpeed="13.85" duration="15.00" routeLength="194.90" waitingTime="0.00" waitingCount="0" stopTime="0.00" timeLoss="0.68" rerouteNo="0" devices="tripinfo_veh54 routing_veh54" vType="DEFAULT_VEHTYPE" speedFactor="1.00" vaporized=""/>
    <tripinfo id="veh52" depart="312.00" departLane="in_n5_1_0" departPos="5.10" departSpeed="14.13" departDelay="0.00" arrival="350.00" arrivalLane="out_1_n2_0" arrivalPos="92.80" arrivalSpeed="13.16" duration="38.00" routeLength="189.53" waitingTime="20.00" waitingCount="1" stopTime="0.00" timeLoss="23.76" rerouteNo="0" devices="tripinfo_veh52 routing_veh52" vType="DEFAULT_VEHTYPE" speedFactor="1.02" vaporized=""/>
    <tripinfo id="veh55" depart="330.00" departLane="in_n5_1_0" departPos="5.10" departSpeed="13.84" departDelay="0.00" arrival="352.00" arrivalLane="out_1_n2_0" arrivalPos="92.80" arrivalSpeed="13.42" duration="22.00" routeLength="189.53" waitingTime="0.00" waitingCount="0" stopTime="0.00" timeLoss="7.35" rerouteNo="0" devices="tripinfo_veh55 routing_veh55" vType="DEFAULT_VEHTYPE" speedFactor="1.00" vaporized=""/>
    <tripinfo id="veh56" depart="336.00" departLane="in_n5_1_0" departPos="5.10" departSpeed="12.49" departDelay="0.00" arrival="356.00" arrivalLane="out_1_n2_0" arrivalPos="92.80" arrivalSpeed="12.22" duration="20.00" routeLength="189.53" waitingTime="0.00" waitingCount="0" stopTime="0.00" timeLoss="3.94" rerouteNo="0" devices="tripinfo_veh56 routing_veh56" vType="DEFAULT_VEHTYPE" speedFactor="0.90" vaporized=""/>
    <tripinfo id="veh57" depart="342.00" departLane="in_n2_1_0" departPos="5.10" departSpeed="15.88" departDelay="0.00" arrival="370.00" arrivalLane="out_1_n4_0" arrivalPos="92.80" arrivalSpeed="15.28" duration="28.00" routeLength="189.53" waitingTime="8.00" waitingCount="1" stopTime="0.00" timeLoss="14.90" rerouteNo="0" devices="tripinfo_veh57 routing_veh57" vType="DEFAULT_VEHTYPE" speedFactor="1.14" vaporized=""/>
    <tripinfo id="veh59" depart="354.00" departLane="in_n3_1_0" departPos="5.10" departSpeed="13.48" departDelay="0.00" arrival="371.00" arrivalLane="out_1_n5_0" arrivalPos="92.80" arrivalSpeed="13.19" duration="17.00" routeLength="189.53" waitingTime="0.00" waitingCount="0" stopTime="0.00" timeLoss="1.99" rerouteNo="0" devices="tripinfo_veh59 routing_veh59" vType="DEFAULT_VEHTYPE" speedFactor="0.97" vaporized=""/>
    <tripinfo id="veh58" depart="348.00" departLane="in_n2_1_0" departPos="5.10" departSpeed="14.23" departDelay="0.00" arrival="373.00" arrivalLane="out_1_n5_0" arrivalPos="92.80" arrivalSpeed="13.27" duration="25.00" routeLength="194.70" waitingTime="4.00" waitingCount="1" stopTime="0.00" timeLoss="10.13" rerouteNo="0" devices="tripinfo_veh58 routing_veh58" vType="DEFAULT_VEHTYPE" speedFactor="1.02" vaporized=""/>
    <tripinfo id="veh61" depart="366.00" departLane="in_n5_1_0" departPos="5.10" departSpeed="15.56" departDelay="0.00" arrival="390.00" arrivalLane="out_1_n2_0" arrivalPos="92.80" arrivalSpeed="15.15" duration="24.00" routeLength="189.53" waitingTime="3.00" waitingCount="1" stopTime="0.00" timeLoss="10.67" rerouteNo="0" devices="tripinfo_veh61 routing_veh61" vType="DEFAULT_VEHTYPE" speedFactor="1.12" vaporized=""/>
    <tripinfo id="veh60" depart="360.00" departLane="in_n4_1_0" departPos="5.10" departSpeed="15.05" departDelay="0.00" arrival="393.00" arrivalLane="out_1_n2_0" arrivalPos="92.80" arrivalSpeed="14.59" duration="33.00" routeLength="194.70" waitingTime="10.00" waitingCount="1" stopTime="0.00" timeLoss="18.81" rerouteNo="0" devices="tripinfo_veh60 routing_veh60" vType="DEFAULT_VEHTYPE" speedFactor="1.08" vaporized=""/>
    <tripinfo id="veh64" depart="384.00" departLane="in_n4_1_0" departPos="5.10" departSpeed="13.03" departDelay="0.00" arrival="400.00" arrivalLane="out_1_n5_0" arrivalPos="92.80" arrivalSpeed="12.10" duration="16.00" routeLength="194.90" waitingTime="0.00" waitingCount="0" stopTime="0.00" timeLoss="0.78" rerouteNo="0" devices="tripinfo_veh64 routing_veh64" vType="DEFAULT_VEHTYPE" speedFactor="0.94" vaporized=""/>
    <tripinfo id="veh65" depart="390.00" departLane="in_n4_1_0" departPos="5.10" departSpeed="12.26" departDelay="0.00" arrival="407.00" arrivalLane="out_1_n5_0" arrivalPos="92.80" arrivalSpeed="10.98" duration="17.00" routeLength="194.90" waitingTime="0.00" waitingCount="0" stopTime="0.00" timeLoss="1.08" rerouteNo="0" devices="tripinfo_veh65 routing_veh65" vType="DEFAULT_VEHTYPE" speedFactor="0.88" vaporized=""/>
    <tripinfo id="veh62" depart="372.00" departLane="in_n3_1_0" departPos="5.10" departSpeed="14.12" departDelay="0.00" arrival="410.00" arrivalLane="out_1_n5_0" arrivalPos="92.80" arrivalSpeed="13.00" duration="38.00" routeLength="189.53" waitingTime="20.00" waitingCount="1" stopTime="0.00" timeLoss="23.91" rerouteNo="0" devices="tripinfo_veh62 routing_veh62" vType="DEFAULT_VEHTYPE" speedFactor="1.02" vaporized=""/>
    <tripinfo id="veh63" depart="378.00" departLane="in_n2_1_0" departPos="5.10" departSpeed="13.72" departDelay="0.00" arrival="410.00" arrivalLane="out_1_n4_0" arrivalPos="92.80" arrivalSpeed="12.44" duration="32.00" routeLength="189.53" waitingTime="12.00" waitingCount="1" stopTime="0.00" timeLoss="17.73" rerouteNo="0" devices="tripinfo_veh63 routing_veh63" vType="DEFAULT_VEHTYPE" speedFactor="0.99" vaporized=""/>
    <tripinfo id="veh66" depart="396.00" departLane="in_n3_1_0" departPos="5.10" departSpeed="12.60" departDelay="0.00" arrival="414.00" arrivalLane="out_1_n4_0" arrivalPos="92.80" arrivalSpeed="11.45" duration="18.00" routeLength="194.70" waitingTime="0.00" waitingCount="0" stopTime="0.00" timeLoss="1.73" rerouteNo="0" devices="tripinfo_veh66 routing_veh66" vType="DEFAULT_VEHTYPE" speedFactor="0.91" vaporized=""/>
    <tripinfo id="veh68" depart="408.00" departLane="in_n5_1_0" departPos="5.10" departSpeed="14.46" departDelay="0.00" arrival="430.00" arrivalLane="out_1_n2_0" arrivalPos="92.80" arrivalSpeed="13.27" duration="22.00" routeLength="189.53" waitingTime="3.00" waitingCount="1" stopTime="0.00" timeLoss="8.33" rerouteNo="0" devices="tripinfo_veh68 routing_veh68" vType="DEFAULT_VEHTYPE" speedFactor="1.04" vaporized=""/>
    <tripinfo id="veh67" depart="402.00" departLane="in_n4_1_0" departPos="5.10" departSpeed="12.71" departDelay="0.00" arrival="431.00" arrivalLane="out_1_n5_0" arrivalPos="92.80" arrivalSpeed="12.60" duration="29.00" routeLength="194.90" waitingTime="7.00" waitingCount="1" stopTime="0.00" timeLoss="13.32" rerouteNo="0" devices="tripinfo_veh67 routing_veh67" vType="DEFAULT_VEHTYPE" speedFactor="0.91" vaporized=""/>