<?xml version="1.0" encoding="UTF-8"?>

<!-- generated on 2025-06-18 11:23:35 by Eclipse SUMO sumo Version 1.23.1
<sumoConfiguration xmlns:xsi="http://www.w3.org/2001/XMLSchema-instance" xsi:noNamespaceSchemaLocation="http://sumo.dlr.de/xsd/sumoConfiguration.xsd">

    <input>
        <net-file value="tl_intersection.net.xml"/>
        <route-files value="tl_intersection.rou.xml"/>
        <additional-files value="tl_intersection.tll.xml"/>
    </input>

    <output>
        <tripinfo-output value="tl_intersection_tripinfo.xml"/>
    </output>

    <time>
        <begin value="0"/>
        <end value="3600"/>
    </time>

    <report>
        <no-warnings value="false"/>
        <message-log value="tl_intersection_warnings.log"/>
    </report>

</sumoConfiguration>
-->

<tripinfos xmlns:xsi="http://www.w3.org/2001/XMLSchema-instance" xsi:noNamespaceSchemaLocation="http://sumo.dlr.de/xsd/tripinfo_file.xsd">
    <tripinfo id="veh0" depart="0.00" departLane="in_n3_1_0" departPos="5.10" departSpeed="17.67" departDelay="0.00" arrival="15.00" arrivalLane="out_1_n4_0" arrivalPos="92.80" arrivalSpeed="16.38" duration="15.00" routeLength="194.70" waitingTime="0.00" waitingCount="0" stopTime="0.00" timeLoss="3.09" rerouteNo="0" devices="tripinfo_veh0 routing_veh0" vType="DEFAULT_VEHTYPE" speedFactor="1.06" vaporized=""/>
    <tripinfo id="veh4" depart="24.00" departLane="in_n5_1_0" departPos="5.10" departSpeed="17.18" departDelay="0.00" arrival="36.00" arrivalLane="out_1_n4_0" arrivalPos="92.80" arrivalSpeed="16.58" duration="12.00" routeLength="194.90" waitingTime="0.00" waitingCount="0" stopTime="0.00" timeLoss="0.52" rerouteNo="0" devices="tripinfo_veh4 routing_veh4" vType="DEFAULT_VEHTYPE" speedFactor="1.03" vaporized=""/>
    <tripinfo id="veh1" depart="6.00" departLane="in_n4_1_0" departPos="5.10" departSpeed="15.64" departDelay="0.00" arrival="39.00" arrivalLane="out_1_n5_0" arrivalPos="92.80" arrivalSpeed="14.54" duration="33.00" routeLength="194.90" waitingTime="14.00" waitingCount="1" stopTime="0.00" timeLoss="20.23" rerouteNo="0" devices="tripinfo_veh1 routing_veh1" vType="DEFAULT_VEHTYPE" speedFactor="0.94" vaporized=""/>
    <tripinfo id="veh2" depart="12.00" departLane="in_n4_1_0" departPos="5.10" departSpeed="16.84" departDelay="0.00" arrival="41.00" arrivalLane="out_1_n2_0" arrivalPos="92.80" arrivalSpeed="16.49" duration="29.00" routeLength="194.70" waitingTime="9.00" waitingCount="1" stopTime="0.00" timeLoss="15.94" rerouteNo="0" devices="tripinfo_veh2 routing_veh2" vType="DEFAULT_VEHTYPE" speedFactor="1.01" vaporized=""/>
    <tripinfo id="veh3" depart="18.00" departLane="in_n4_1_0" departPos="5.10" departSpeed="18.05" departDelay="0.00" arrival="43.00" arrivalLane="out_1_n2_0" arrivalPos="92.80" arrivalSpeed="17.19" duration="25.00" routeLength="194.70" waitingTime="4.00" waitingCount="1" stopTime="0.00" timeLoss="12.82" rerouteNo="0" devices="tripinfo_veh3 routing_veh3" vType="DEFAULT_VEHTYPE" speedFactor="1.08" vaporized=""/>
    <tripinfo id="veh7" depart="42.00" departLane="in_n5_1_0" departPos="5.10" departSpeed="14.77" departDelay="0.00" arrival="56.00" arrivalLane="out_1_n4_0" arrivalPos="92.80" arrivalSpeed="13.64" duration="14.00" routeLength="194.90" waitingTime="0.00" waitingCount="0" stopTime="0.00" timeLoss="0.51" rerouteNo="0" devices="tripinfo_veh7 routing_veh7" vType="DEFAULT_VEHTYPE" speedFactor="0.89" vaporized=""/>
    <tripinfo id="veh8" depart="48.00" departLane="in_n3_1_0" departPos="5.10" departSpeed="15.63" departDelay="0.00" arrival="72.00" arrivalLane="out_1_n5_0" arrivalPos="92.80" arrivalSpeed="14.92" duration="24.00" routeLength="189.53" waitingTime="6.00" waitingCount="1" stopTime="0.00" timeLoss="11.18" rerouteNo="0" devices="tripinfo_veh8 routing_veh8" vType="DEFAULT_VEHTYPE" speedFactor="0.94" vaporized=""/>
    <tripinfo id="veh5" depart="30.00" departLane="in_n2_1_0" departPos="5.10" departSpeed="13.85" departDelay="0.00" arrival="74.00" arrivalLane="out_1_n3_0" arrivalPos="92.80" arrivalSpeed="13.83" duration="44.00" routeLength="194.90" waitingTime="23.00" waitingCount="1" stopTime="0.00" timeLoss="28.95" rerouteNo="0" devices="tripinfo_veh5 routing_veh5" vType="DEFAULT_VEHTYPE" speedFactor="0.83" vaporized=""/>
    <tripinfo id="veh9" depart="54.00" departLane="in_n3_1_0" departPos="5.10" departSpeed="14.28" departDelay="0.00" arrival="77.00" arrivalLane="out_1_n5_0" arrivalPos="92.80" arrivalSpeed="13.46" duration="23.00" routeLength="189.53" waitingTime="1.00" waitingCount="1" stopTime="0.00" timeLoss="7.82" rerouteNo="0" devices="tripinfo_veh9 routing_veh9" vType="DEFAULT_VEHTYPE" speedFactor="0.86" vaporized=""/>
    <tripinfo id="veh6" depart="36.00" departLane="in_n2_1_0" departPos="5.10" departSpeed="17.43" departDelay="0.00" arrival="78.00" arrivalLane="out_1_n5_0" arrivalPos="92.80" arrivalSpeed="16.30" duration="42.00" routeLength="194.70" waitingTime="19.00" waitingCount="1" stopTime="0.00" timeLoss="29.72" rerouteNo="0" devices="tripinfo_veh6 routing_veh6" vType="DEFAULT_VEHTYPE" speedFactor="1.05" vaporized=""/>
    <tripinfo id="veh11" depart="66.00" departLane="in_n3_1_0" departPos="5.10" departSpeed="17.11" departDelay="0.00" arrival="79.00" arrivalLane="out_1_n2_0" arrivalPos="92.80" arrivalSpeed="17.08" duration="13.00" routeLength="194.90" waitingTime="0.00" waitingCount="0" stopTime="0.00" timeLoss="0.94" rerouteNo="0" devices="tripinfo_veh11 routing_veh11" vType="DEFAULT_VEHTYPE" speedFactor="1.03" vaporized=""/>
    <tripinfo id="veh13" depart="78.00" departLane="in_n2_1_0" departPos="5.10" departSpeed="18.72" departDelay="0.00" arrival="93.00" arrivalLane="out_1_n4_0" arrivalPos="92.80" arrivalSpeed="17.67" duration="15.00" routeLength="189.53" waitingTime="0.00" waitingCount="0" stopTime="0.00" timeLoss="3.09" rerouteNo="0" devices="tripinfo_veh13 routing_veh13" vType="DEFAULT_VEHTYPE" speedFactor="1.12" vaporized=""/>
    <tripinfo id="veh12" depart="72.00" departLane="in_n5_1_0" departPos="5.10" departSpeed="17.46" departDelay="0.00" arrival="101.00" arrivalLane="out_1_n4_0" arrivalPos="92.80" arrivalSpeed="17.45" duration="29.00" routeLength="194.90" waitingTime="12.00" waitingCount="1" stopTime="0.00" timeLoss="17.82" rerouteNo="0" devices="tripinfo_veh12 routing_veh12" vType="DEFAULT_VEHTYPE" speedFactor="1.05" vaporized=""/>
    <tripinfo id="veh10" depart="60.00" departLane="in_n4_1_0" departPos="5.10" departSpeed="18.18" departDelay="0.00" arrival="102.00" arrivalLane="out_1_n3_0" arrivalPos="92.80" arrivalSpeed="17.82" duration="42.00" routeLength="189.53" waitingTime="24.00" waitingCount="1" stopTime="0.00" timeLoss="30.44" rerouteNo="0" devices="tripinfo_veh10 routing_veh10" vType="DEFAULT_VEHTYPE" speedFactor="1.09" vaporized=""/>
    <tripinfo id="veh16" depart="96.00" departLane="in_n4_1_0" departPos="5.10" departSpeed="14.64" departDelay="0.00" arrival="113.00" arrivalLane="out_1_n3_0" arrivalPos="92.80" arrivalSpeed="14.33" duration="17.00" routeLength="189.53" waitingTime="0.00" waitingCount="0" stopTime="0.00" timeLoss="3.43" rerouteNo="0" devices="tripinfo_veh16 routing_veh16" vType="DEFAULT_VEHTYPE" speedFactor="0.88" vaporized=""/>
    <tripinfo id="veh14" depart="84.00" departLane="in_n3_1_0" departPos="5.10" departSpeed="16.52" departDelay="0.00" arrival="136.00" arrivalLane="out_1_n2_0" arrivalPos="92.80" arrivalSpeed="15.37" duration="52.00" routeLength="194.90" waitingTime="32.00" waitingCount="1" stopTime="0.00" timeLoss="39.94" rerouteNo="0" devices="tripinfo_veh14 routing_veh14" vType="DEFAULT_VEHTYPE" speedFactor="0.99" vaporized=""/>
    <tripinfo id="veh15" depart="90.00" departLane="in_n2_1_0" departPos="5.10" departSpeed="15.45" departDelay="0.00" arrival="136.00" arrivalLane="out_1_n4_0" arrivalPos="92.80" arrivalSpeed="14.52" duration="46.00" routeLength="189.53" waitingTime="25.00" waitingCount="1" stopTime="0.00" timeLoss="32.39" rerouteNo="0" devices="tripinfo_veh15 routing_veh15" vType="DEFAULT_VEHTYPE" speedFactor="0.93" vaporized=""/>
    <tripinfo id="veh17" depart="102.00" departLane="in_n2_1_0" departPos="5.10" departSpeed="15.69" departDelay="0.00" arrival="138.00" arrivalLane="out_1_n3_0" arrivalPos="92.80" arrivalSpeed="15.12" duration="36.00" routeLength="194.90" waitingTime="16.00" waitingCount="1" stopTime="0.00" timeLoss="23.03" rerouteNo="0" devices="tripinfo_veh17 routing_veh17" vType="DEFAULT_VEHTYPE" speedFactor="0.94" vaporized=""/>
    <tripinfo id="veh18" depart="108.00" departLane="in_n2_1_0" departPos="5.10" departSpeed="15.61" departDelay="0.00" arrival="140.00" arrivalLane="out_1_n3_0" arrivalPos="92.80" arrivalSpeed="14.61" duration="32.00" routeLength="194.90" waitingTime="11.00" waitingCount="1" stopTime="0.00" timeLoss="18.72" rerouteNo="0" devices="tripinfo_veh18 routing_veh18" vType="DEFAULT_VEHTYPE" speedFactor="0.94" vaporized=""/>
    <tripinfo id="veh19" depart="114.00" departLane="in_n2_1_0" departPos="5.10" departSpeed="19.31" departDelay="0.00" arrival="142.00" arrivalLane="out_1_n4_0" arrivalPos="92.80" arrivalSpeed="18.77" duration="28.00" routeLength="189.53" waitingTime="7.00" waitingCount="1" stopTime="0.00" timeLoss="17.34" rerouteNo="0" devices="tripinfo_veh19 routing_veh19" vType="DEFAULT_VEHTYPE" speedFactor="1.16" vaporized=""/>
    <tripinfo id="veh23" depart="138.00" departLane="in_n3_1_0" departPos="5.10" departSpeed="14.83" departDelay="0.00" arrival="155.00" arrivalLane="out_1_n5_0" arrivalPos="92.80" arrivalSpeed="14.15" duration="17.00" routeLength="189.53" waitingTime="0.00" waitingCount="0" stopTime="0.00" timeLoss="3.35" rerouteNo="0" devices="tripinfo_veh23 routing_veh23" vType="DEFAULT_VEHTYPE" speedFactor="0.89" vaporized=""/>
    <tripinfo id="veh24" depart="144.00" departLane="in_n2_1_0" departPos="5.10" departSpeed="13.76" departDelay="0.00" arrival="162.00" arrivalLane="out_1_n5_0" arrivalPos="92.80" arrivalSpeed="12.61" duration="18.00" routeLength="194.70" waitingTime="0.00" waitingCount="0" stopTime="0.00" timeLoss="2.45" rerouteNo="0" devices="tripinfo_veh24 routing_veh24" vType="DEFAULT_VEHTYPE" speedFactor="0.83" vaporized=""/>
    <tripinfo id="veh21" depart="126.00" departLane="in_n4_1_0" departPos="5.10" departSpeed="16.84" departDelay="0.00" arrival="165.00" arrivalLane="out_1_n5_0" arrivalPos="92.80" arrivalSpeed="15.63" duration="39.00" routeLength="194.90" waitingTime="19.00" waitingCount="1" stopTime="0.00" timeLoss="26.83" rerouteNo="0" devices="tripinfo_veh21 routing_veh21" vType="DEFAULT_VEHTYPE" speedFactor="1.01" vaporized=""/>
    <tripinfo id="veh20" depart="120.00" departLane="in_n5_1_0" departPos="5.10" departSpeed="16.97" departDelay="0.00" arrival="168.00" arrivalLane="out_1_n3_0" arrivalPos="92.80" arrivalSpeed="16.29" duration="48.00" routeLength="194.70" waitingTime="26.00" waitingCount="1" stopTime="0.00" timeLoss="35.25" rerouteNo="0" devices="tripinfo_veh20 routing_veh20" vType="DEFAULT_VEHTYPE" speedFactor="1.02" vaporized=""/>
    <tripinfo id="veh22" depart="132.00" departLane="in_n4_1_0" departPos="5.10" departSpeed="16.25" departDelay="0.00" arrival="168.00" arrivalLane="out_1_n2_0" arrivalPos="92.80" arrivalSpeed="15.00" duration="36.00" routeLength="194.70" waitingTime="15.00" waitingCount="1" stopTime="0.00" timeLoss="22.23" rerouteNo="0" devices="tripinfo_veh22 routing_veh22" vType="DEFAULT_VEHTYPE" speedFactor="0.97" vaporized=""/>
    <tripinfo id="veh26" depart="156.00" departLane="in_n2_1_0" departPos="5.10" departSpeed="15.29" departDelay="0.00" arrival="199.00" arrivalLane="out_1_n5_0" arrivalPos="92.80" arrivalSpeed="14.23" duration="43.00" routeLength="194.70" waitingTime="23.00" waitingCount="1" stopTime="0.00" timeLoss="29.39" rerouteNo="0" devices="tripinfo_veh26 routing_veh26" vType="DEFAULT_VEHTYPE" speedFactor="0.92" vaporized=""/>
    <tripinfo id="veh25" depart="150.00" departLane="in_n3_1_0" departPos="5.10" departSpeed="14.55" departDelay="0.00" arrival="200.00" arrivalLane="out_1_n4_0" arrivalPos="92.80" arrivalSpeed="13.66" duration="50.00" routeLength="194.70" waitingTime="29.00" waitingCount="1" stopTime="0.00" timeLoss="34.97" rerouteNo="0" devices="tripinfo_veh25 routing_veh25" vType="DEFAULT_VEHTYPE" speedFactor="0.87" vaporized=""/>
    <tripinfo id="veh28" depart="168.00" departLane="in_n3_1_0" departPos="5.10" departSpeed="18.87" departDelay="0.00" arrival="201.00" arrivalLane="out_1_n4_0" arrivalPos="92.80" arrivalSpeed="15.89" duration="33.00" routeLength="194.70" waitingTime="15.00" waitingCount="1" stopTime="0.00" timeLoss="21.84" rerouteNo="0" devices="tripinfo_veh28 routing_veh28" vType="DEFAULT_VEHTYPE" speedFactor="1.13" vaporized=""/>
    <tripinfo id="veh32" depart="192.00" departLane="in_n3_1_0" departPos="5.10" departSpeed="16.76" departDelay="0.00" arrival="204.00" arrivalLane="out_1_n2_0" arrivalPos="92.80" arrivalSpeed="16.44" duration="12.00" routeLength="194.90" waitingTime="0.00" waitingCount="0" stopTime="0.00" timeLoss="0.28" rerouteNo="0" devices="tripinfo_veh32 routing_veh32" vType="DEFAULT_VEHTYPE" speedFactor="1.01" vaporized=""/>
    <tripinfo id="veh27" depart="162.00" departLane="in_n2_1_0" departPos="5.10" departSpeed="15.82" departDelay="0.00" arrival="205.00" arrivalLane="out_1_n4_0" arrivalPos="92.80" arrivalSpeed="15.60" duration="43.00" routeLength="189.53" waitingTime="20.00" waitingCount="2" stopTime="0.00" timeLoss="29.03" rerouteNo="0" devices="tripinfo_veh27 routing_veh27" vType="DEFAULT_VEHTYPE" speedFactor="0.95" vaporized=""/>
    <tripinfo id="veh29" depart="174.00" departLane="in_n2_1_0" departPos="5.10" departSpeed="15.52" departDelay="0.00" arrival="207.00" arrivalLane="out_1_n4_0" arrivalPos="92.80" arrivalSpeed="15.08" duration="33.00" routeLength="189.53" waitingTime="9.00" waitingCount="1" stopTime="0.00" timeLoss="19.60" rerouteNo="0" devices="tripinfo_veh29 routing_veh29" vType="DEFAULT_VEHTYPE" speedFactor="0.93" vaporized=""/>
    <tripinfo id="veh30" depart="180.00" departLane="in_n2_1_0" departPos="5.10" departSpeed="19.65" departDelay="0.00" arrival="209.00" arrivalLane="out_1_n4_0" arrivalPos="92.80" arrivalSpeed="18.74" duration="29.00" routeLength="189.53" waitingTime="5.00" waitingCount="1" stopTime="0.00" timeLoss="17.48" rerouteNo="0" devices="tripinfo_veh30 routing_veh30" vType="DEFAULT_VEHTYPE" speedFactor="1.18" vaporized=""/>
    <tripinfo id="veh31" depart="186.00" departLane="in_n2_1_0" departPos="5.10" departSpeed="19.24" departDelay="0.00" arrival="210.00" arrivalLane="out_1_n3_0" arrivalPos="92.80" arrivalSpeed="18.87" duration="24.00" routeLength="194.90" waitingTime="0.00" waitingCount="0" stopTime="0.00" timeLoss="13.03" rerouteNo="0" devices="tripinfo_veh31 routing_veh31" vType="DEFAULT_VEHTYPE" speedFactor="1.15" vaporized=""/>
    <tripinfo id="veh33" depart="198.00" departLane="in_n2_1_0" departPos="5.10" departSpeed="19.53" departDelay="0.00" arrival="212.00" arrivalLane="out_1_n5_0" arrivalPos="92.80" arrivalSpeed="18.66" duration="14.00" routeLength="194.70" waitingTime="0.00" waitingCount="0" stopTime="0.00" timeLoss="3.53" rerouteNo="0" devices="tripinfo_veh33 routing_veh33" vType="DEFAULT_VEHTYPE" speedFactor="1.17" vaporized=""/>
    <tripinfo id="veh34" depart="204.00" departLane="in_n2_1_0" departPos="5.10" departSpeed="16.58" departDelay="0.00" arrival="217.00" arrivalLane="out_1_n3_0" arrivalPos="92.80" arrivalSpeed="15.65" duration="13.00" routeLength="194.90" waitingTime="0.00" waitingCount="0" stopTime="0.00" timeLoss="0.47" rerouteNo="0" devices="tripinfo_veh34 routing_veh34" vType="DEFAULT_VEHTYPE" speedFactor="0.99" vaporized=""/>
    <tripinfo id="veh40" depart="240.00" departLane="in_n4_1_0" departPos="5.10" departSpeed="17.18" departDelay="0.00" arrival="255.00" arrivalLane="out_1_n3_0" arrivalPos="92.80" arrivalSpeed="16.88" duration="15.00" routeLength="189.53" waitingTime="0.00" waitingCount="0" stopTime="0.00" timeLoss="2.91" rerouteNo="0" devices="tripinfo_veh40 routing_veh40" vType="DEFAULT_VEHTYPE" speedFactor="1.03" vaporized=""/>
    <tripinfo id="veh36" depart="216.00" departLane="in_n2_1_0" departPos="5.10" departSpeed="16.22" departDelay="0.00" arrival="262.00" arrivalLane="out_1_n3_0" arrivalPos="92.80" arrivalSpeed="15.48" duration="46.00" routeLength="194.90" waitingTime="26.00" waitingCount="1" stopTime="0.00" timeLoss="33.63" rerouteNo="0" devices="tripinfo_veh36 routing_veh36" vType="DEFAULT_VEHTYPE" speedFactor="0.97" vaporized=""/>
    <tripinfo id="veh38" depart="228.00" departLane="in_n2_1_0" departPos="5.10" departSpeed="18.38" departDelay="0.00" arrival="264.00" arrivalLane="out_1_n3_0" arrivalPos="92.80" arrivalSpeed="17.90" duration="36.00" routeLength="194.90" waitingTime="17.00" waitingCount="1" stopTime="0.00" timeLoss="24.55" rerouteNo="0" devices="tripinfo_veh38 routing_veh38" vType="DEFAULT_VEHTYPE" speedFactor="1.10" vaporized=""/>
    <tripinfo id="veh35" depart="210.00" departLane="in_n3_1_0" departPos="5.10" departSpeed="17.00" departDelay="0.00" arrival="268.00" arrivalLane="out_1_n4_0" arrivalPos="92.80" arrivalSpeed="16.60" duration="58.00" routeLength="194.70" waitingTime="35.00" waitingCount="2" stopTime="0.00" timeLoss="45.04" rerouteNo="0" devices="tripinfo_veh35 routing_veh35" vType="DEFAULT_VEHTYPE" speedFactor="1.02" vaporized=""/>
    <tripinfo id="veh37" depart="222.00" departLane="in_n3_1_0" departPos="5.10" departSpeed="19.67" departDelay="0.00" arrival="269.00" arrivalLane="out_1_n5_0" arrivalPos="92.80" arrivalSpeed="19.51" duration="47.00" routeLength="189.53" waitingTime="24.00" waitingCount="2" stopTime="0.00" timeLoss="36.34" rerouteNo="0" devices="tripinfo_veh37 routing_veh37" vType="DEFAULT_VEHTYPE" speedFactor="1.18" vaporized=""/>
    <tripinfo id="veh42" depart="252.00" departLane="in_n2_1_0" departPos="5.10" departSpeed="18.20" departDelay="0.00" arrival="270.00" arrivalLane="out_1_n4_0" arrivalPos="92.80" arrivalSpeed="17.41" duration="18.00" routeLength="189.53" waitingTime="1.00" waitingCount="1" stopTime="0.00" timeLoss="6.84" rerouteNo="0" devices="tripinfo_veh42 routing_veh42" vType="DEFAULT_VEHTYPE" speedFactor="1.09" vaporized=""/>
    <tripinfo id="veh39" depart="234.00" departLane="in_n3_1_0" departPos="5.10" departSpeed="15.01" departDelay="0.00" arrival="273.00" arrivalLane="out_1_n5_0" arrivalPos="92.80" arrivalSpeed="14.78" duration="39.00" routeLength="189.53" waitingTime="12.00" waitingCount="2" stopTime="0.00" timeLoss="24.85" rerouteNo="0" devices="tripinfo_veh39 routing_veh39" vType="DEFAULT_VEHTYPE" speedFactor="0.90" vaporized=""/>
    <tripinfo id="veh44" depart="264.00" departLane="in_n3_1_0" departPos="5.10" departSpeed="17.39" departDelay="0.00" arrival="279.00" arrivalLane="out_1_n4_0" arrivalPos="92.80" arrivalSpeed="17.11" duration="15.00" routeLength="194.70" waitingTime="0.00" waitingCount="0" stopTime="0.00" timeLoss="1.91" rerouteNo="0" devices="tripinfo_veh44 routing_veh44" vType="DEFAULT_VEHTYPE" speedFactor="1.04" vaporized=""/>
    <tripinfo id="veh41" depart="246.00" departLane="in_n4_1_0" departPos="5.10" departSpeed="15.95" departDelay="0.00" arrival="291.00" arrivalLane="out_1_n3_0" arrivalPos="92.80" arrivalSpeed="15.46" duration="45.00" routeLength="189.53" waitingTime="26.00" waitingCount="1" stopTime="0.00" timeLoss="31.94" rerouteNo="0" devices="tripinfo_veh41 routing_veh41" vType="DEFAULT_VEHTYPE" speedFactor="0.96" vaporized=""/>
    <tripinfo id="veh43" depart="258.00" departLane="in_n5_1_0" departPos="5.10" departSpeed="17.30" departDelay="0.00" arrival="291.00" arrivalLane="out_1_n4_0" arrivalPos="92.80" arrivalSpeed="16.96" duration="33.00" routeLength="194.90" waitingTime="14.00" waitingCount="1" stopTime="0.00" timeLoss="20.99" rerouteNo="0" devices="tripinfo_veh43 routing_veh43" vType="DEFAULT_VEHTYPE" speedFactor="1.04" vaporized=""/>
    <tripinfo id="veh46" depart="276.00" departLane="in_n4_1_0" departPos="5.10" departSpeed="16.63" departDelay="0.00" arrival="293.00" arrivalLane="out_1_n3_0" arrivalPos="92.80" arrivalSpeed="15.72" duration="17.00" routeLength="189.53" waitingTime="0.00" waitingCount="0" stopTime="0.00" timeLoss="4.34" rerouteNo="0" devices="tripinfo_veh46 routing_veh46" vType="DEFAULT_VEHTYPE" speedFactor="1.00" vaporized=""/>
    <tripinfo id="veh45" depart="270.00" departLane="in_n5_1_0" departPos="5.10" departSpeed="18.14" departDelay="0.00" arrival="295.00" arrivalLane="out_1_n3_0" arrivalPos="92.80" arrivalSpeed="17.65" duration="25.00" routeLength="194.70" waitingTime="2.00" waitingCount="1" stopTime="0.00" timeLoss="12.66" rerouteNo="0" devices="tripinfo_veh45 routing_veh45" vType="DEFAULT_VEHTYPE" speedFactor="1.09" vaporized=""/>
    <tripinfo id="veh51" depart="306.00" departLane="in_n4_1_0" departPos="5.10" departSpeed="19.49" departDelay="0.00" arrival="319.00" arrivalLane="out_1_n2_0" arrivalPos="92.80" arrivalSpeed="19.13" duration="13.00" routeLength="194.70" waitingTime="0.00" waitingCount="0" stopTime="0.00" timeLoss="2.46" rerouteNo="0" devices="tripinfo_veh51 routing_veh51" vType="DEFAULT_VEHTYPE" speedFactor="1.17" vaporized=""/>
    <tripinfo id="veh47" depart="282.00" departLane="in_n2_1_0" departPos="5.10" departSpeed="15.01" departDelay="0.00" arrival="325.00" arrivalLane="out_1_n3_0" arrivalPos="92.80" arrivalSpeed="14.85" duration="43.00" routeLength="194.90" waitingTime="24.00" waitingCount="1" stopTime="0.00" timeLoss="29.79" rerouteNo="0" devices="tripinfo_veh47 routing_veh47" vType="DEFAULT_VEHTYPE" speedFactor="0.90" vaporized=""/>
    <tripinfo id="veh48" depart="288.00" departLane="in_n2_1_0" departPos="5.10" departSpeed="14.62" departDelay="0.00" arrival="327.00" arrivalLane="out_1_n3_0" arrivalPos="92.80" arrivalSpeed="13.43" duration="39.00" routeLength="194.90" waitingTime="19.00" waitingCount="1" stopTime="0.00" timeLoss="25.49" rerouteNo="0" devices="tripinfo_veh48 routing_veh48" vType="DEFAULT_VEHTYPE" speedFactor="0.88" vaporized=""/>
    <tripinfo id="veh49" depart="294.00" departLane="in_n2_1_0" departPos="5.10" departSpeed="14.18" departDelay="0.00" arrival="329.00" arrivalLane="out_1_n3_0" arrivalPos="92.80" arrivalSpeed="13.29" duration="35.00" routeLength="194.90" waitingTime="14.00" waitingCount="1" stopTime="0.00" timeLoss="20.99" rerouteNo="0" devices="tripinfo_veh49 routing_veh49" vType="DEFAULT_VEHTYPE" speedFactor="0.85" vaporized=""/>
    <tripinfo id="veh53" depart="318.00" departLane="in_n3_1_0" departPos="5.10" departSpeed="18.27" departDelay="0.00" arrival="332.00" arrivalLane="out_1_n4_0" arrivalPos="92.80" arrivalSpeed="17.40" duration="14.00" routeLength="194.70" waitingTime="0.00" waitingCount="0" stopTime="0.00" timeLoss="2.27" rerouteNo="0" devices="tripinfo_veh53 routing_veh53" vType="DEFAULT_VEHTYPE" speedFactor="1.10" vaporized=""/>
    <tripinfo id="veh50" depart="300.00" departLane="in_n2_1_0" departPos="5.10" departSpeed="14.25" departDelay="0.00" arrival="333.00" arrivalLane="out_1_n5_0" arrivalPos="92.80" arrivalSpeed="13.00" duration="33.00" routeLength="194.70" waitingTime="10.00" waitingCount="1" stopTime="0.00" timeLoss="18.07" rerouteNo="0" devices="tripinfo_veh50 routing_veh50" vType="DEFAULT_VEHTYPE" speedFactor="0.85" vaporized=""/>
    <tripinfo id="veh54" depart="324.00" departLane="in_n3_1_0" departPos="5.10" departSpeed="16.72" departDelay="0.00" arrival="337.00" arrivalLane="out_1_n2_0" arrivalPos="92.80" arrivalSpeed="16.39" duration="13.00" routeLength="194.90" waitingTime="0.00" waitingCount="0" stopTime="0.00" timeLoss="0.44" rerouteNo="0" devices="tripinfo_veh54 routing_veh54" vType="DEFAULT_VEHTYPE" speedFactor="1.00" vaporized=""/>
    <tripinfo id="veh52" depart="312.00" departLane="in_n5_1_0" departPos="5.10" departSpeed="16.95" departDelay="0.00" arrival="353.00" arrivalLane="out_1_n2_0" arrivalPos="92.80" arrivalSpeed="16.74" duration="41.00" routeLength="189.53" waitingTime="23.00" waitingCount="1" stopTime="0.00" timeLoss="29.17" rerouteNo="0" devices="tripinfo_veh52 routing_veh52" vType="DEFAULT_VEHTYPE" speedFactor="1.02" vaporized=""/>
    <tripinfo id="veh55" depart="330.00" departLane="in_n5_1_0" departPos="5.10" departSpeed="16.60" departDelay="0.00" arrival="357.00" arrivalLane="out_1_n2_0" arrivalPos="92.80" arrivalSpeed="16.09" duration="27.00" routeLength="189.53" waitingTime="7.00" waitingCount="1" stopTime="0.00" timeLoss="13.84" rerouteNo="0" devices="tripinfo_veh55 routing_veh55" vType="DEFAULT_VEHTYPE" speedFactor="1.00" vaporized=""/>
    <tripinfo id="veh56" depart="336.00" departLane="in_n5_1_0" departPos="5.10" departSpeed="14.98" departDelay="0.00" arrival="360.00" arrivalLane="out_1_n2_0" arrivalPos="92.80" arrivalSpeed="14.55" duration="24.00" routeLength="189.53" waitingTime="2.00" waitingCount="1" stopTime="0.00" timeLoss="10.13" rerouteNo="0" devices="tripinfo_veh56 routing_veh56" vType="DEFAULT_VEHTYPE" speedFactor="0.90" vaporized=""/>
    <tripinfo id="veh60" depart="360.00" departLane="in_n4_1_0" departPos="5.10" departSpeed="18.05" departDelay="0.00" arrival="375.00" arrivalLane="out_1_n2_0" arrivalPos="92.80" arrivalSpeed="17.50" duration="15.00" routeLength="194.70" waitingTime="0.00" waitingCount="0" stopTime="0.00" timeLoss="2.44" rerouteNo="0" devices="tripinfo_veh60 routing_veh60" vType="DEFAULT_VEHTYPE" speedFactor="1.08" vaporized=""/>
    <tripinfo id="veh61" depart="366.00" departLane="in_n5_1_0" departPos="5.10" departSpeed="18.66" departDelay="0.00" arrival="381.00" arrivalLane="out_1_n2_0" arrivalPos="92.80" arrivalSpeed="17.80" duration="15.00" routeLength="189.53" waitingTime="0.00" waitingCount="0" stopTime="0.00" timeLoss="3.09" rerouteNo="0" devices="tripinfo_veh61 routing_veh61" vType="DEFAULT_VEHTYPE" speedFactor="1.12" vaporized=""/>
    <tripinfo id="veh57" depart="342.00" departLane="in_n2_1_0" departPos="5.10" departSpeed="19.05" departDelay="0.00" arrival="387.00" arrivalLane="out_1_n4_0" arrivalPos="92.80" arrivalSpeed="18.67" duration="45.00" routeLength="189.53" waitingTime="26.00" waitingCount="1" stopTime="0.00" timeLoss="33.89" rerouteNo="0" devices="tripinfo_veh57 routing_veh57" vType="DEFAULT_VEHTYPE" speedFactor="1.14" vaporized=""/>
    <tripinfo id="veh59" depart="354.00" departLane="in_n3_1_0" departPos="5.10" departSpeed="16.16" departDelay="0.00" arrival="388.00" arrivalLane="out_1_n5_0" arrivalPos="92.80" arrivalSpeed="15.47" duration="34.00" routeLength="189.53" waitingTime="16.00" waitingCount="1" stopTime="0.00" timeLoss="21.17" rerouteNo="0" devices="tripinfo_veh59 routing_veh59" vType="DEFAULT_VEHTYPE" speedFactor="0.97" vaporized=""/>
    <tripinfo id="veh58" depart="348.00" departLane="in_n2_1_0" departPos="5.10" departSpeed="17.06" departDelay="0.00" arrival="390.00" arrivalLane="out_1_n5_0" arrivalPos="92.80" arrivalSpeed="15.78" duration="42.00" routeLength="194.70" waitingTime="21.00" waitingCount="1" stopTime="0.00" timeLoss="28.95" rerouteNo="0" devices="tripinfo_veh58 routing_veh58" vType="DEFAULT_VEHTYPE" speedFactor="1.02" vaporized=""/>
    <tripinfo id="veh62" depart="372.00" departLane="in_n3_1_0" departPos="5.10" departSpeed="16.93" departDelay="0.00" arrival="393.00" arrivalLane="out_1_n5_0" arrivalPos="92.80" arrivalSpeed="16.65" duration="21.00" routeLength="189.53" waitingTime="2.00" waitingCount="1" stopTime="0.00" timeLoss="8.35" rerouteNo="0" devices="tripinfo_veh62 routing_veh62" vType="DEFAULT_VEHTYPE" speedFactor="1.02" vaporized=""/>
    <tripinfo id="veh63" depart="378.00" departLane="in_n2_1_0" departPos="5.10" departSpeed="16.45" departDelay="0.00" arrival="394.00" arrivalLane="out_1_n4_0" arrivalPos="92.80" arrivalSpeed="16.43" duration="16.00" routeLength="189.53" waitingTime="0.00" waitingCount="0" stopTime="0.00" timeLoss="3.13" rerouteNo="0" devices="tripinfo_veh63 routing_veh63" vType="DEFAULT_VEHTYPE" speedFactor="0.99" vaporized=""/>
    <tripinfo id="veh66" depart="396.00" departLane="in_n3_1_0" departPos="5.10" departSpeed="15.12" departDelay="0.00" arrival="413.00" arrivalLane="out_1_n4_0" arrivalPos="92.80" arrivalSpeed="14.25" duration="17.00" routeLength="194.70" waitingTime="0.00" waitingCount="0" stopTime="0.00" timeLoss="2.33" rerouteNo="0" devices="tripinfo_veh66 routing_veh66" vType="DEFAULT_VEHTYPE" speedFactor="0.91" vaporized=""/>
    <tripinfo id="veh64" depart="384.00" departLane="in_n4_1_0" departPos="5.10" departSpeed="15.63" departDelay="0.00" arrival="417.00" arrivalLane="out_1_n5_0" arrivalPos="92.80" arrivalSpeed="15.48" duration="33.00" routeLength="194.90" waitingTime="14.00" waitingCount="1" stopTime="0.00" timeLoss="20.07" rerouteNo="0" devices="tripinfo_veh64 routing_veh64" vType="DEFAULT_VEHTYPE" speedFactor="0.94" vaporized=""/>
    <tripinfo id="veh65" depart="390.00" departLane="in_n4_1_0" departPos="5.10" departSpeed="14.71" departDelay="0.00" arrival="419.00" arrivalLane="out_1_n5_0" arrivalPos="92.80" arrivalSpeed="13.75" duration="29.00" routeLength="194.90" waitingTime="9.00" waitingCount="1" stopTime="0.00" timeLoss="15.64" rerouteNo="0" devices="tripinfo_veh65 routing_veh65" vType="DEFAULT_VEHTYPE" speedFactor="0.88" vaporized=""/>
    <tripinfo id="veh67" depart="402.00" departLane="in_n4_1_0" departPos="5.10" departSpeed="15.25" departDelay="0.00" arrival="421.00" arrivalLane="out_1_n5_0" arrivalPos="92.80" arrivalSpeed="14.73" duration="19.00" routeLength="194.90" waitingTime="0.00" waitingCount="0" stopTime="0.00" timeLoss="5.84" rerouteNo="0" devices="tripinfo_veh67 routing_veh67" vType="DEFAULT_VEHTYPE" speedFactor="0.91" vaporized=""/>
    <tripinfo id="veh68" depart="408.00" departLane="in_n5_1_0" departPos="5.10" departSpeed="17.34" departDelay="0.00" arrival="424.00" arrivalLane="out_1_n2_0" arrivalPos="92.80" arrivalSpeed="16.94" duration="16.00" routeLength="189.53" waitingTime="0.00" waitingCount="0" stopTime="0.00" timeLoss="3.57" rerouteNo="0" devices="tripinfo_veh68 routing_veh68" vType="DEFAULT_VEHTYPE" speedFactor="1.04" vaporized=""/>