<?xml version="1.0" encoding="UTF-8"?>

<!-- generated on 2025-06-21 10:22:36 by Eclipse SUMO sumo Version 1.23.1
<sumoConfiguration xmlns:xsi="http://www.w3.org/2001/XMLSchema-instance" xsi:noNamespaceSchemaLocation="http://sumo.dlr.de/xsd/sumoConfiguration.xsd">

    <input>
        <net-file value="tl_intersection.net.xml"/>
        <route-files value="tl_intersection.rou.xml"/>
        <additional-files value="tl_intersection.tll.xml"/>
    </input>

    <output>
        <tripinfo-output value="tl_intersection_tripinfo.xml"/>
    </output>

    <time>
        <begin value="0"/>
        <end value="3600"/>
    </time>

    <report>
        <no-warnings value="false"/>
        <message-log value="tl_intersection_warnings.log"/>
    </report>

</sumoConfiguration>
-->

<tripinfos xmlns:xsi="http://www.w3.org/2001/XMLSchema-instance" xsi:noNamespaceSchemaLocation="http://sumo.dlr.de/xsd/tripinfo_file.xsd">
    <tripinfo id="veh0" depart="0.00" departLane="in_n3_1_0" departPos="5.10" departSpeed="23.55" departDelay="0.00" arrival="14.00" arrivalLane="out_1_n4_0" arrivalPos="92.80" arrivalSpeed="19.61" duration="14.00" routeLength="194.70" waitingTime="0.00" waitingCount="0" stopTime="0.00" timeLoss="4.47" rerouteNo="0" devices="tripinfo_veh0 routing_veh0" vType="DEFAULT_VEHTYPE" speedFactor="1.06" vaporized=""/>
    <tripinfo id="veh5" depart="15.00" departLane="in_n2_1_0" departPos="5.10" departSpeed="18.46" departDelay="0.00" arrival="26.00" arrivalLane="out_1_n3_0" arrivalPos="92.80" arrivalSpeed="18.05" duration="11.00" routeLength="194.90" waitingTime="0.00" waitingCount="0" stopTime="0.00" timeLoss="0.33" rerouteNo="0" devices="tripinfo_veh5 routing_veh5" vType="DEFAULT_VEHTYPE" speedFactor="0.83" vaporized=""/>
    <tripinfo id="veh6" depart="18.00" departLane="in_n2_1_0" departPos="5.10" departSpeed="23.24" departDelay="0.00" arrival="31.00" arrivalLane="out_1_n5_0" arrivalPos="92.80" arrivalSpeed="19.57" duration="13.00" routeLength="194.70" waitingTime="0.00" waitingCount="0" stopTime="0.00" timeLoss="3.99" rerouteNo="0" devices="tripinfo_veh6 routing_veh6" vType="DEFAULT_VEHTYPE" speedFactor="1.05" vaporized=""/>
    <tripinfo id="veh8" depart="24.00" departLane="in_n3_1_0" departPos="5.10" departSpeed="20.84" departDelay="0.00" arrival="39.00" arrivalLane="out_1_n5_0" arrivalPos="92.80" arrivalSpeed="19.74" duration="15.00" routeLength="189.53" waitingTime="0.00" waitingCount="0" stopTime="0.00" timeLoss="4.17" rerouteNo="0" devices="tripinfo_veh8 routing_veh8" vType="DEFAULT_VEHTYPE" speedFactor="0.94" vaporized=""/>
    <tripinfo id="veh4" depart="12.00" departLane="in_n5_1_0" departPos="5.10" departSpeed="22.89" departDelay="0.00" arrival="44.00" arrivalLane="out_1_n4_0" arrivalPos="92.80" arrivalSpeed="19.69" duration="32.00" routeLength="194.90" waitingTime="15.00" waitingCount="1" stopTime="0.00" timeLoss="23.39" rerouteNo="0" devices="tripinfo_veh4 routing_veh4" vType="DEFAULT_VEHTYPE" speedFactor="1.03" vaporized=""/>
    <tripinfo id="veh1" depart="3.00" departLane="in_n4_1_0" departPos="5.10" departSpeed="20.85" departDelay="0.00" arrival="45.00" arrivalLane="out_1_n5_0" arrivalPos="92.80" arrivalSpeed="20.33" duration="42.00" routeLength="194.90" waitingTime="24.00" waitingCount="1" stopTime="0.00" timeLoss="31.85" rerouteNo="0" devices="tripinfo_veh1 routing_veh1" vType="DEFAULT_VEHTYPE" speedFactor="0.94" vaporized=""/>
    <tripinfo id="veh7" depart="21.00" departLane="in_n5_1_0" departPos="5.10" departSpeed="19.69" departDelay="0.00" arrival="46.00" arrivalLane="out_1_n4_0" arrivalPos="92.80" arrivalSpeed="19.36" duration="25.00" routeLength="194.90" waitingTime="8.00" waitingCount="1" stopTime="0.00" timeLoss="14.52" rerouteNo="0" devices="tripinfo_veh7 routing_veh7" vType="DEFAULT_VEHTYPE" speedFactor="0.89" vaporized=""/>
    <tripinfo id="veh12" depart="36.00" departLane="in_n5_1_0" departPos="5.10" departSpeed="23.27" departDelay="0.00" arrival="47.00" arrivalLane="out_1_n4_0" arrivalPos="92.80" arrivalSpeed="23.07" duration="11.00" routeLength="194.90" waitingTime="0.00" waitingCount="0" stopTime="0.00" timeLoss="2.52" rerouteNo="0" devices="tripinfo_veh12 routing_veh12" vType="DEFAULT_VEHTYPE" speedFactor="1.05" vaporized=""/>
    <tripinfo id="veh2" depart="6.00" departLane="in_n4_1_0" departPos="5.10" departSpeed="22.45" departDelay="0.00" arrival="50.00" arrivalLane="out_1_n2_0" arrivalPos="92.80" arrivalSpeed="20.73" duration="44.00" routeLength="194.70" waitingTime="22.00" waitingCount="1" stopTime="0.00" timeLoss="33.72" rerouteNo="0" devices="tripinfo_veh2 routing_veh2" vType="DEFAULT_VEHTYPE" speedFactor="1.01" vaporized=""/>
    <tripinfo id="veh3" depart="9.00" departLane="in_n4_1_0" departPos="5.10" departSpeed="23.07" departDelay="0.00" arrival="52.00" arrivalLane="out_1_n2_0" arrivalPos="92.80" arrivalSpeed="21.37" duration="43.00" routeLength="194.70" waitingTime="19.00" waitingCount="1" stopTime="0.00" timeLoss="33.42" rerouteNo="0" devices="tripinfo_veh3 routing_veh3" vType="DEFAULT_VEHTYPE" speedFactor="1.08" vaporized=""/>
    <tripinfo id="veh10" depart="30.00" departLane="in_n4_1_0" departPos="5.10" departSpeed="21.84" departDelay="0.00" arrival="54.00" arrivalLane="out_1_n3_0" arrivalPos="92.80" arrivalSpeed="20.14" duration="24.00" routeLength="189.53" waitingTime="1.00" waitingCount="1" stopTime="0.00" timeLoss="15.08" rerouteNo="0" devices="tripinfo_veh10 routing_veh10" vType="DEFAULT_VEHTYPE" speedFactor="1.09" vaporized=""/>
    <tripinfo id="veh16" depart="48.00" departLane="in_n4_1_0" departPos="5.10" departSpeed="19.52" departDelay="0.00" arrival="63.00" arrivalLane="out_1_n3_0" arrivalPos="92.80" arrivalSpeed="18.68" duration="15.00" routeLength="189.53" waitingTime="0.00" waitingCount="0" stopTime="0.00" timeLoss="4.42" rerouteNo="0" devices="tripinfo_veh16 routing_veh16" vType="DEFAULT_VEHTYPE" speedFactor="0.88" vaporized=""/>
    <tripinfo id="veh20" depart="60.00" departLane="in_n5_1_0" departPos="5.10" departSpeed="22.62" departDelay="0.00" arrival="74.00" arrivalLane="out_1_n3_0" arrivalPos="92.80" arrivalSpeed="21.61" duration="14.00" routeLength="194.70" waitingTime="0.00" waitingCount="0" stopTime="0.00" timeLoss="4.05" rerouteNo="0" devices="tripinfo_veh20 routing_veh20" vType="DEFAULT_VEHTYPE" speedFactor="1.02" vaporized=""/>
    <tripinfo id="veh21" depart="63.00" departLane="in_n4_1_0" departPos="5.10" departSpeed="22.45" departDelay="0.00" arrival="75.00" arrivalLane="out_1_n5_0" arrivalPos="92.80" arrivalSpeed="21.35" duration="12.00" routeLength="194.90" waitingTime="0.00" waitingCount="0" stopTime="0.00" timeLoss="2.68" rerouteNo="0" devices="tripinfo_veh21 routing_veh21" vType="DEFAULT_VEHTYPE" speedFactor="1.01" vaporized=""/>
    <tripinfo id="veh9" depart="27.00" departLane="in_n3_1_0" departPos="5.10" departSpeed="19.04" departDelay="0.00" arrival="85.00" arrivalLane="out_1_n5_0" arrivalPos="92.80" arrivalSpeed="17.88" duration="58.00" routeLength="189.53" waitingTime="38.00" waitingCount="1" stopTime="0.00" timeLoss="46.79" rerouteNo="0" devices="tripinfo_veh9 routing_veh9" vType="DEFAULT_VEHTYPE" speedFactor="0.86" vaporized=""/>
    <tripinfo id="veh13" depart="39.00" departLane="in_n2_1_0" departPos="5.10" departSpeed="24.95" departDelay="0.00" arrival="85.00" arrivalLane="out_1_n4_0" arrivalPos="92.80" arrivalSpeed="19.31" duration="46.00" routeLength="189.53" waitingTime="27.00" waitingCount="1" stopTime="0.00" timeLoss="37.30" rerouteNo="0" devices="tripinfo_veh13 routing_veh13" vType="DEFAULT_VEHTYPE" speedFactor="1.12" vaporized=""/>
    <tripinfo id="veh11" depart="33.00" departLane="in_n3_1_0" departPos="5.10" departSpeed="22.80" departDelay="0.00" arrival="86.00" arrivalLane="out_1_n2_0" arrivalPos="92.80" arrivalSpeed="21.03" duration="53.00" routeLength="194.90" waitingTime="35.00" waitingCount="1" stopTime="0.00" timeLoss="44.09" rerouteNo="0" devices="tripinfo_veh11 routing_veh11" vType="DEFAULT_VEHTYPE" speedFactor="1.03" vaporized=""/>
    <tripinfo id="veh15" depart="45.00" departLane="in_n2_1_0" departPos="5.10" departSpeed="20.59" departDelay="0.00" arrival="87.00" arrivalLane="out_1_n4_0" arrivalPos="92.80" arrivalSpeed="19.82" duration="42.00" routeLength="189.53" waitingTime="23.00" waitingCount="1" stopTime="0.00" timeLoss="31.42" rerouteNo="0" devices="tripinfo_veh15 routing_veh15" vType="DEFAULT_VEHTYPE" speedFactor="0.93" vaporized=""/>
    <tripinfo id="veh14" depart="42.00" departLane="in_n3_1_0" departPos="5.10" departSpeed="22.02" departDelay="0.00" arrival="88.00" arrivalLane="out_1_n2_0" arrivalPos="92.80" arrivalSpeed="21.08" duration="46.00" routeLength="194.90" waitingTime="28.00" waitingCount="1" stopTime="0.00" timeLoss="36.34" rerouteNo="0" devices="tripinfo_veh14 routing_veh14" vType="DEFAULT_VEHTYPE" speedFactor="0.99" vaporized=""/>
    <tripinfo id="veh17" depart="52.00" departLane="in_n2_1_0" departPos="5.10" departSpeed="20.92" departDelay="1.00" arrival="88.00" arrivalLane="out_1_n3_0" arrivalPos="92.80" arrivalSpeed="20.86" duration="36.00" routeLength="194.90" waitingTime="18.00" waitingCount="1" stopTime="0.00" timeLoss="25.84" rerouteNo="0" devices="tripinfo_veh17 routing_veh17" vType="DEFAULT_VEHTYPE" speedFactor="0.94" vaporized=""/>
    <tripinfo id="veh18" depart="54.00" departLane="in_n2_1_0" departPos="5.10" departSpeed="20.80" departDelay="0.00" arrival="89.00" arrivalLane="out_1_n3_0" arrivalPos="92.80" arrivalSpeed="19.81" duration="35.00" routeLength="194.90" waitingTime="18.00" waitingCount="1" stopTime="0.00" timeLoss="25.52" rerouteNo="0" devices="tripinfo_veh18 routing_veh18" vType="DEFAULT_VEHTYPE" speedFactor="0.94" vaporized=""/>
    <tripinfo id="veh23" depart="69.00" departLane="in_n3_1_0" departPos="5.10" departSpeed="19.77" departDelay="0.00" arrival="92.00" arrivalLane="out_1_n5_0" arrivalPos="92.80" arrivalSpeed="19.48" duration="23.00" routeLength="189.53" waitingTime="2.00" waitingCount="1" stopTime="0.00" timeLoss="11.90" rerouteNo="0" devices="tripinfo_veh23 routing_veh23" vType="DEFAULT_VEHTYPE" speedFactor="0.89" vaporized=""/>
    <tripinfo id="veh19" depart="57.00" departLane="in_n2_1_0" departPos="5.10" departSpeed="20.32" departDelay="0.00" arrival="94.00" arrivalLane="out_1_n4_0" arrivalPos="92.80" arrivalSpeed="20.40" duration="37.00" routeLength="189.53" waitingTime="15.00" waitingCount="1" stopTime="0.00" timeLoss="28.66" rerouteNo="0" devices="tripinfo_veh19 routing_veh19" vType="DEFAULT_VEHTYPE" speedFactor="1.16" vaporized=""/>
    <tripinfo id="veh25" depart="75.00" departLane="in_n3_1_0" departPos="5.10" departSpeed="19.39" departDelay="0.00" arrival="97.00" arrivalLane="out_1_n4_0" arrivalPos="92.80" arrivalSpeed="18.15" duration="22.00" routeLength="194.70" waitingTime="1.00" waitingCount="1" stopTime="0.00" timeLoss="10.11" rerouteNo="0" devices="tripinfo_veh25 routing_veh25" vType="DEFAULT_VEHTYPE" speedFactor="0.87" vaporized=""/>
    <tripinfo id="veh24" depart="72.00" departLane="in_n2_1_0" departPos="5.10" departSpeed="18.35" departDelay="0.00" arrival="98.00" arrivalLane="out_1_n5_0" arrivalPos="92.80" arrivalSpeed="17.96" duration="26.00" routeLength="194.70" waitingTime="0.00" waitingCount="0" stopTime="0.00" timeLoss="13.49" rerouteNo="0" devices="tripinfo_veh24 routing_veh24" vType="DEFAULT_VEHTYPE" speedFactor="0.83" vaporized=""/>
    <tripinfo id="veh28" depart="84.00" departLane="in_n3_1_0" departPos="5.10" departSpeed="24.10" departDelay="0.00" arrival="99.00" arrivalLane="out_1_n4_0" arrivalPos="92.80" arrivalSpeed="21.95" duration="15.00" routeLength="194.70" waitingTime="0.00" waitingCount="0" stopTime="0.00" timeLoss="5.45" rerouteNo="0" devices="tripinfo_veh28 routing_veh28" vType="DEFAULT_VEHTYPE" speedFactor="1.13" vaporized=""/>
    <tripinfo id="veh26" depart="78.00" departLane="in_n2_1_0" departPos="5.10" departSpeed="17.13" departDelay="0.00" arrival="100.00" arrivalLane="out_1_n5_0" arrivalPos="92.80" arrivalSpeed="19.90" duration="22.00" routeLength="194.70" waitingTime="0.00" waitingCount="0" stopTime="0.00" timeLoss="10.90" rerouteNo="0" devices="tripinfo_veh26 routing_veh26" vType="DEFAULT_VEHTYPE" speedFactor="0.92" vaporized=""/>
    <tripinfo id="veh27" depart="81.00" departLane="in_n2_1_0" departPos="5.10" departSpeed="15.12" departDelay="0.00" arrival="102.00" arrivalLane="out_1_n4_0" arrivalPos="92.80" arrivalSpeed="18.48" duration="21.00" routeLength="189.53" waitingTime="0.00" waitingCount="0" stopTime="0.00" timeLoss="10.65" rerouteNo="0" devices="tripinfo_veh27 routing_veh27" vType="DEFAULT_VEHTYPE" speedFactor="0.95" vaporized=""/>
    <tripinfo id="veh29" depart="88.00" departLane="in_n2_1_0" departPos="5.10" departSpeed="19.46" departDelay="1.00" arrival="105.00" arrivalLane="out_1_n4_0" arrivalPos="92.80" arrivalSpeed="20.63" duration="17.00" routeLength="189.53" waitingTime="0.00" waitingCount="0" stopTime="0.00" timeLoss="5.87" rerouteNo="0" devices="tripinfo_veh29 routing_veh29" vType="DEFAULT_VEHTYPE" speedFactor="0.93" vaporized=""/>
    <tripinfo id="veh32" depart="96.00" departLane="in_n3_1_0" departPos="5.10" departSpeed="22.34" departDelay="0.00" arrival="105.00" arrivalLane="out_1_n2_0" arrivalPos="92.80" arrivalSpeed="22.28" duration="9.00" routeLength="194.90" waitingTime="0.00" waitingCount="0" stopTime="0.00" timeLoss="0.27" rerouteNo="0" devices="tripinfo_veh32 routing_veh32" vType="DEFAULT_VEHTYPE" speedFactor="1.01" vaporized=""/>
    <tripinfo id="veh30" depart="90.00" departLane="in_n2_1_0" departPos="5.10" departSpeed="19.41" departDelay="0.00" arrival="107.00" arrivalLane="out_1_n4_0" arrivalPos="92.80" arrivalSpeed="19.81" duration="17.00" routeLength="189.53" waitingTime="0.00" waitingCount="0" stopTime="0.00" timeLoss="8.85" rerouteNo="0" devices="tripinfo_veh30 routing_veh30" vType="DEFAULT_VEHTYPE" speedFactor="1.18" vaporized=""/>
    <tripinfo id="veh31" depart="93.00" departLane="in_n2_1_0" departPos="5.10" departSpeed="19.77" departDelay="0.00" arrival="108.00" arrivalLane="out_1_n3_0" arrivalPos="92.80" arrivalSpeed="22.55" duration="15.00" routeLength="194.90" waitingTime="0.00" waitingCount="0" stopTime="0.00" timeLoss="6.66" rerouteNo="0" devices="tripinfo_veh31 routing_veh31" vType="DEFAULT_VEHTYPE" speedFactor="1.15" vaporized=""/>
    <tripinfo id="veh33" depart="99.00" departLane="in_n2_1_0" departPos="5.10" departSpeed="23.34" departDelay="0.00" arrival="112.00" arrivalLane="out_1_n5_0" arrivalPos="92.80" arrivalSpeed="20.00" duration="13.00" routeLength="194.70" waitingTime="0.00" waitingCount="0" stopTime="0.00" timeLoss="4.83" rerouteNo="0" devices="tripinfo_veh33 routing_veh33" vType="DEFAULT_VEHTYPE" speedFactor="1.17" vaporized=""/>
    <tripinfo id="veh22" depart="66.00" departLane="in_n4_1_0" departPos="5.10" departSpeed="21.66" departDelay="0.00" arrival="120.00" arrivalLane="out_1_n2_0" arrivalPos="92.80" arrivalSpeed="21.64" duration="54.00" routeLength="194.70" waitingTime="35.00" waitingCount="1" stopTime="0.00" timeLoss="43.47" rerouteNo="0" devices="tripinfo_veh22 routing_veh22" vType="DEFAULT_VEHTYPE" speedFactor="0.97" vaporized=""/>
    <tripinfo id="veh40" depart="120.00" departLane="in_n4_1_0" departPos="5.10" departSpeed="22.90" departDelay="0.00" arrival="134.00" arrivalLane="out_1_n3_0" arrivalPos="92.80" arrivalSpeed="20.64" duration="14.00" routeLength="189.53" waitingTime="0.00" waitingCount="0" stopTime="0.00" timeLoss="4.69" rerouteNo="0" devices="tripinfo_veh40 routing_veh40" vType="DEFAULT_VEHTYPE" speedFactor="1.03" vaporized=""/>
    <tripinfo id="veh41" depart="123.00" departLane="in_n4_1_0" departPos="5.10" departSpeed="21.27" departDelay="0.00" arrival="138.00" arrivalLane="out_1_n3_0" arrivalPos="92.80" arrivalSpeed="21.24" duration="15.00" routeLength="189.53" waitingTime="0.00" waitingCount="0" stopTime="0.00" timeLoss="4.07" rerouteNo="0" devices="tripinfo_veh41 routing_veh41" vType="DEFAULT_VEHTYPE" speedFactor="0.96" vaporized=""/>
    <tripinfo id="veh43" depart="129.00" departLane="in_n5_1_0" departPos="5.10" departSpeed="23.06" departDelay="0.00" arrival="138.00" arrivalLane="out_1_n4_0" arrivalPos="92.80" arrivalSpeed="22.85" duration="9.00" routeLength="194.90" waitingTime="0.00" waitingCount="0" stopTime="0.00" timeLoss="0.20" rerouteNo="0" devices="tripinfo_veh43 routing_veh43" vType="DEFAULT_VEHTYPE" speedFactor="1.04" vaporized=""/>
    <tripinfo id="veh45" depart="135.00" departLane="in_n5_1_0" departPos="5.10" departSpeed="24.18" departDelay="0.00" arrival="148.00" arrivalLane="out_1_n3_0" arrivalPos="92.80" arrivalSpeed="20.20" duration="13.00" routeLength="194.70" waitingTime="0.00" waitingCount="0" stopTime="0.00" timeLoss="4.26" rerouteNo="0" devices="tripinfo_veh45 routing_veh45" vType="DEFAULT_VEHTYPE" speedFactor="1.09" vaporized=""/>
    <tripinfo id="veh46" depart="138.00" departLane="in_n4_1_0" departPos="5.10" departSpeed="22.16" departDelay="0.00" arrival="153.00" arrivalLane="out_1_n3_0" arrivalPos="92.80" arrivalSpeed="20.50" duration="15.00" routeLength="189.53" waitingTime="0.00" waitingCount="0" stopTime="0.00" timeLoss="4.61" rerouteNo="0" devices="tripinfo_veh46 routing_veh46" vType="DEFAULT_VEHTYPE" speedFactor="1.00" vaporized=""/>
    <tripinfo id="veh34" depart="102.00" departLane="in_n2_1_0" departPos="5.10" departSpeed="22.10" departDelay="0.00" arrival="160.00" arrivalLane="out_1_n3_0" arrivalPos="92.80" arrivalSpeed="20.72" duration="58.00" routeLength="194.90" waitingTime="40.00" waitingCount="1" stopTime="0.00" timeLoss="48.38" rerouteNo="0" devices="tripinfo_veh34 routing_veh34" vType="DEFAULT_VEHTYPE" speedFactor="0.99" vaporized=""/>
    <tripinfo id="veh36" depart="108.00" departLane="in_n2_1_0" departPos="5.10" departSpeed="21.62" departDelay="0.00" arrival="161.00" arrivalLane="out_1_n3_0" arrivalPos="92.80" arrivalSpeed="21.04" duration="53.00" routeLength="194.90" waitingTime="34.00" waitingCount="1" stopTime="0.00" timeLoss="43.64" rerouteNo="0" devices="tripinfo_veh36 routing_veh36" vType="DEFAULT_VEHTYPE" speedFactor="0.97" vaporized=""/>
    <tripinfo id="veh38" depart="114.00" departLane="in_n2_1_0" departPos="5.10" departSpeed="23.12" departDelay="0.00" arrival="163.00" arrivalLane="out_1_n3_0" arrivalPos="92.80" arrivalSpeed="23.80" duration="49.00" routeLength="194.90" waitingTime="31.00" waitingCount="1" stopTime="0.00" timeLoss="40.19" rerouteNo="0" devices="tripinfo_veh38 routing_veh38" vType="DEFAULT_VEHTYPE" speedFactor="1.10" vaporized=""/>
    <tripinfo id="veh42" depart="126.00" departLane="in_n2_1_0" departPos="5.10" departSpeed="21.84" departDelay="0.00" arrival="167.00" arrivalLane="out_1_n4_0" arrivalPos="92.80" arrivalSpeed="17.80" duration="41.00" routeLength="189.53" waitingTime="21.00" waitingCount="1" stopTime="0.00" timeLoss="31.75" rerouteNo="0" devices="tripinfo_veh42 routing_veh42" vType="DEFAULT_VEHTYPE" speedFactor="1.09" vaporized=""/>
    <tripinfo id="veh35" depart="105.00" departLane="in_n3_1_0" departPos="5.10" departSpeed="22.66" departDelay="0.00" arrival="170.00" arrivalLane="out_1_n4_0" arrivalPos="92.80" arrivalSpeed="20.18" duration="65.00" routeLength="194.70" waitingTime="43.00" waitingCount="3" stopTime="0.00" timeLoss="54.42" rerouteNo="0" devices="tripinfo_veh35 routing_veh35" vType="DEFAULT_VEHTYPE" speedFactor="1.02" vaporized=""/>
    <tripinfo id="veh37" depart="111.00" departLane="in_n3_1_0" departPos="5.10" departSpeed="24.40" departDelay="0.00" arrival="171.00" arrivalLane="out_1_n5_0" arrivalPos="92.80" arrivalSpeed="19.09" duration="60.00" routeLength="189.53" waitingTime="36.00" waitingCount="2" stopTime="0.00" timeLoss="51.84" rerouteNo="0" devices="tripinfo_veh37 routing_veh37" vType="DEFAULT_VEHTYPE" speedFactor="1.18" vaporized=""/>
    <tripinfo id="veh47" depart="141.00" departLane="in_n2_1_0" departPos="5.10" departSpeed="20.01" departDelay="0.00" arrival="173.00" arrivalLane="out_1_n3_0" arrivalPos="92.80" arrivalSpeed="19.52" duration="32.00" routeLength="194.90" waitingTime="5.00" waitingCount="1" stopTime="0.00" timeLoss="22.07" rerouteNo="0" devices="tripinfo_veh47 routing_veh47" vType="DEFAULT_VEHTYPE" speedFactor="0.90" vaporized=""/>
    <tripinfo id="veh39" depart="117.00" departLane="in_n3_1_0" departPos="5.10" departSpeed="20.01" departDelay="0.00" arrival="174.00" arrivalLane="out_1_n5_0" arrivalPos="92.80" arrivalSpeed="18.29" duration="57.00" routeLength="189.53" waitingTime="31.00" waitingCount="2" stopTime="0.00" timeLoss="46.31" rerouteNo="0" devices="tripinfo_veh39 routing_veh39" vType="DEFAULT_VEHTYPE" speedFactor="0.90" vaporized=""/>
    <tripinfo id="veh48" depart="144.00" departLane="in_n2_1_0" departPos="5.10" departSpeed="18.65" departDelay="0.00" arrival="175.00" arrivalLane="out_1_n3_0" arrivalPos="92.80" arrivalSpeed="19.40" duration="31.00" routeLength="194.90" waitingTime="5.00" waitingCount="1" stopTime="0.00" timeLoss="20.65" rerouteNo="0" devices="tripinfo_veh48 routing_veh48" vType="DEFAULT_VEHTYPE" speedFactor="0.88" vaporized=""/>
    <tripinfo id="veh49" depart="147.00" departLane="in_n2_1_0" departPos="5.10" departSpeed="16.87" departDelay="0.00" arrival="177.00" arrivalLane="out_1_n3_0" arrivalPos="92.80" arrivalSpeed="18.08" duration="30.00" routeLength="194.90" waitingTime="2.00" waitingCount="1" stopTime="0.00" timeLoss="19.11" rerouteNo="0" devices="tripinfo_veh49 routing_veh49" vType="DEFAULT_VEHTYPE" speedFactor="0.85" vaporized=""/>
    <tripinfo id="veh44" depart="132.00" departLane="in_n3_1_0" departPos="5.10" departSpeed="21.84" departDelay="0.00" arrival="181.00" arrivalLane="out_1_n4_0" arrivalPos="92.80" arrivalSpeed="22.07" duration="49.00" routeLength="194.70" waitingTime="17.00" waitingCount="3" stopTime="0.00" timeLoss="39.08" rerouteNo="0" devices="tripinfo_veh44 routing_veh44" vType="DEFAULT_VEHTYPE" speedFactor="1.04" vaporized=""/>
    <tripinfo id="veh50" depart="150.00" departLane="in_n2_1_0" departPos="5.10" departSpeed="14.90" departDelay="0.00" arrival="181.00" arrivalLane="out_1_n5_0" arrivalPos="92.80" arrivalSpeed="18.76" duration="31.00" routeLength="194.70" waitingTime="1.00" waitingCount="1" stopTime="0.00" timeLoss="18.68" rerouteNo="0" devices="tripinfo_veh50 routing_veh50" vType="DEFAULT_VEHTYPE" speedFactor="0.85" vaporized=""/>
    <tripinfo id="veh53" depart="160.00" departLane="in_n3_1_0" departPos="5.10" departSpeed="21.33" departDelay="1.00" arrival="183.00" arrivalLane="out_1_n4_0" arrivalPos="92.80" arrivalSpeed="21.73" duration="23.00" routeLength="194.70" waitingTime="0.00" waitingCount="0" stopTime="0.00" timeLoss="13.70" rerouteNo="0" devices="tripinfo_veh53 routing_veh53" vType="DEFAULT_VEHTYPE" speedFactor="1.10" vaporized=""/>
    <tripinfo id="veh54" depart="163.00" departLane="in_n3_1_0" departPos="5.10" departSpeed="20.02" departDelay="1.00" arrival="184.00" arrivalLane="out_1_n2_0" arrivalPos="92.80" arrivalSpeed="21.46" duration="21.00" routeLength="194.90" waitingTime="0.00" waitingCount="0" stopTime="0.00" timeLoss="12.21" rerouteNo="0" devices="tripinfo_veh54 routing_veh54" vType="DEFAULT_VEHTYPE" speedFactor="1.00" vaporized=""/>
    <tripinfo id="veh57" depart="171.00" departLane="in_n2_1_0" departPos="5.10" departSpeed="24.90" departDelay="0.00" arrival="185.00" arrivalLane="out_1_n4_0" arrivalPos="92.80" arrivalSpeed="19.32" duration="14.00" routeLength="189.53" waitingTime="0.00" waitingCount="0" stopTime="0.00" timeLoss="5.51" rerouteNo="0" devices="tripinfo_veh57 routing_veh57" vType="DEFAULT_VEHTYPE" speedFactor="1.14" vaporized=""/>
    <tripinfo id="veh58" depart="174.00" departLane="in_n2_1_0" departPos="5.10" departSpeed="22.74" departDelay="0.00" arrival="189.00" arrivalLane="out_1_n5_0" arrivalPos="92.80" arrivalSpeed="21.00" duration="15.00" routeLength="194.70" waitingTime="0.00" waitingCount="0" stopTime="0.00" timeLoss="4.74" rerouteNo="0" devices="tripinfo_veh58 routing_veh58" vType="DEFAULT_VEHTYPE" speedFactor="1.02" vaporized=""/>
    <tripinfo id="veh52" depart="156.00" departLane="in_n5_1_0" departPos="5.10" departSpeed="22.59" departDelay="0.00" arrival="194.00" arrivalLane="out_1_n2_0" arrivalPos="92.80" arrivalSpeed="20.01" duration="38.00" routeLength="189.53" waitingTime="19.00" waitingCount="1" stopTime="0.00" timeLoss="28.81" rerouteNo="0" devices="tripinfo_veh52 routing_veh52" vType="DEFAULT_VEHTYPE" speedFactor="1.02" vaporized=""/>
    <tripinfo id="veh55" depart="165.00" departLane="in_n5_1_0" departPos="5.10" departSpeed="22.13" departDelay="0.00" arrival="197.00" arrivalLane="out_1_n2_0" arrivalPos="92.80" arrivalSpeed="20.21" duration="32.00" routeLength="189.53" waitingTime="13.00" waitingCount="1" stopTime="0.00" timeLoss="21.83" rerouteNo="0" devices="tripinfo_veh55 routing_veh55" vType="DEFAULT_VEHTYPE" speedFactor="1.00" vaporized=""/>
    <tripinfo id="veh51" depart="153.00" departLane="in_n4_1_0" departPos="5.10" departSpeed="25.87" departDelay="0.00" arrival="200.00" arrivalLane="out_1_n2_0" arrivalPos="92.80" arrivalSpeed="19.58" duration="47.00" routeLength="194.70" waitingTime="27.00" waitingCount="2" stopTime="0.00" timeLoss="38.28" rerouteNo="0" devices="tripinfo_veh51 routing_veh51" vType="DEFAULT_VEHTYPE" speedFactor="1.17" vaporized=""/>
    <tripinfo id="veh60" depart="180.00" departLane="in_n4_1_0" departPos="5.10" departSpeed="24.05" departDelay="0.00" arrival="202.00" arrivalLane="out_1_n2_0" arrivalPos="92.80" arrivalSpeed="18.28" duration="22.00" routeLength="194.70" waitingTime="1.00" waitingCount="1" stopTime="0.00" timeLoss="12.80" rerouteNo="0" devices="tripinfo_veh60 routing_veh60" vType="DEFAULT_VEHTYPE" speedFactor="1.08" vaporized=""/>
    <tripinfo id="veh64" depart="192.00" departLane="in_n4_1_0" departPos="5.10" departSpeed="20.83" departDelay="0.00" arrival="202.00" arrivalLane="out_1_n5_0" arrivalPos="92.80" arrivalSpeed="19.99" duration="10.00" routeLength="194.90" waitingTime="0.00" waitingCount="0" stopTime="0.00" timeLoss="0.48" rerouteNo="0" devices="tripinfo_veh64 routing_veh64" vType="DEFAULT_VEHTYPE" speedFactor="0.94" vaporized=""/>
    <tripinfo id="veh65" depart="195.00" departLane="in_n4_1_0" departPos="5.10" departSpeed="19.60" departDelay="0.00" arrival="206.00" arrivalLane="out_1_n5_0" arrivalPos="92.80" arrivalSpeed="18.53" duration="11.00" routeLength="194.90" waitingTime="0.00" waitingCount="0" stopTime="0.00" timeLoss="0.44" rerouteNo="0" devices="tripinfo_veh65 routing_veh65" vType="DEFAULT_VEHTYPE" speedFactor="0.88" vaporized=""/>
    <tripinfo id="veh56" depart="168.00" departLane="in_n5_1_0" departPos="5.10" departSpeed="19.97" departDelay="0.00" arrival="207.00" arrivalLane="out_1_n2_0" arrivalPos="92.80" arrivalSpeed="19.70" duration="39.00" routeLength="189.53" waitingTime="14.00" waitingCount="3" stopTime="0.00" timeLoss="27.65" rerouteNo="0" devices="tripinfo_veh56 routing_veh56" vType="DEFAULT_VEHTYPE" speedFactor="0.90" vaporized=""/>
    <tripinfo id="veh61" depart="183.00" departLane="in_n5_1_0" departPos="5.10" departSpeed="21.84" departDelay="0.00" arrival="208.00" arrivalLane="out_1_n2_0" arrivalPos="92.80" arrivalSpeed="20.35" duration="25.00" routeLength="189.53" waitingTime="0.00" waitingCount="0" stopTime="0.00" timeLoss="16.48" rerouteNo="0" devices="tripinfo_veh61 routing_veh61" vType="DEFAULT_VEHTYPE" speedFactor="1.12" vaporized=""/>
    <tripinfo id="veh67" depart="201.00" departLane="in_n4_1_0" departPos="5.10" departSpeed="20.32" departDelay="0.00" arrival="211.00" arrivalLane="out_1_n5_0" arrivalPos="92.80" arrivalSpeed="20.30" duration="10.00" routeLength="194.90" waitingTime="0.00" waitingCount="0" stopTime="0.00" timeLoss="0.26" rerouteNo="0" devices="tripinfo_veh67 routing_veh67" vType="DEFAULT_VEHTYPE" speedFactor="0.91" vaporized=""/>
    <tripinfo id="veh68" depart="204.00" departLane="in_n5_1_0" departPos="5.10" departSpeed="23.11" departDelay="0.00" arrival="218.00" arrivalLane="out_1_n2_0" arrivalPos="92.80" arrivalSpeed="19.33" duration="14.00" routeLength="189.53" waitingTime="0.00" waitingCount="0" stopTime="0.00" timeLoss="4.93" rerouteNo="0" devices="tripinfo_veh68 routing_veh68" vType="DEFAULT_VEHTYPE" speedFactor="1.04" vaporized=""/>
    <tripinfo id="veh70" depart="210.00" departLane="in_n5_1_0" departPos="5.10" departSpeed="22.73" departDelay="0.00" arrival="219.00" arrivalLane="out_1_n4_0" arrivalPos="92.80" arrivalSpeed="22.19" duration="9.00" routeLength="194.90" waitingTime="0.00" waitingCount="0" stopTime="0.00" timeLoss="0.29" rerouteNo="0" devices="tripinfo_veh70 routing_veh70" vType="DEFAULT_VEHTYPE" speedFactor="1.02" vaporized=""/>
    <tripinfo id="veh59" depart="177.00" departLane="in_n3_1_0" departPos="5.10" departSpeed="21.54" departDelay="0.00" arrival="234.00" arrivalLane="out_1_n5_0" arrivalPos="92.80" arrivalSpeed="20.54" duration="57.00" routeLength="189.53" waitingTime="39.00" waitingCount="1" stopTime="0.00" timeLoss="47.05" rerouteNo="0" devices="tripinfo_veh59 routing_veh59" vType="DEFAULT_VEHTYPE" speedFactor="0.97" vaporized=""/>
    <tripinfo id="veh63" depart="189.00" departLane="in_n2_1_0" departPos="5.10" departSpeed="21.93" departDelay="0.00" arrival="234.00" arrivalLane="out_1_n4_0" arrivalPos="92.80" arrivalSpeed="21.17" duration="45.00" routeLength="189.53" waitingTime="28.00" waitingCount="1" stopTime="0.00" timeLoss="35.06" rerouteNo="0" devices="tripinfo_veh63 routing_veh63" vType="DEFAULT_VEHTYPE" speedFactor="0.99" vaporized=""/>
    <tripinfo id="veh62" depart="186.00" departLane="in_n3_1_0" departPos="5.10" departSpeed="22.57" departDelay="0.00" arrival="237.00" arrivalLane="out_1_n5_0" arrivalPos="92.80" arrivalSpeed="21.04" duration="51.00" routeLength="189.53" waitingTime="32.00" waitingCount="1" stopTime="0.00" timeLoss="40.66" rerouteNo="0" devices="tripinfo_veh62 routing_veh62" vType="DEFAULT_VEHTYPE" speedFactor="1.02" vaporized=""/>